"ID","Name","Solubility","SMILES Canonical","Smiles (Optimized Geometry)","Energy","Smiles","SlogP","TPSA","ExactMW","NumLipinskiHBA","NumLipinskiHBD","NumRotatableBonds","NumHBD","NumHBA","NumAmideBonds","NumHeteroAtoms","NumHeavyAtoms","NumAtoms","NumStereocenters","NumRings","NumAromaticRings","NumSaturatedRings","NumAliphaticRings","NumAromaticHeterocycles","NumSaturatedHeterocycles","NumAliphaticHeterocycles","NumAromaticCarbocycles","NumSaturatedCarbocycles","NumAliphaticCarbocycles","FractionCSP3"
"A-2318","methyl octadecanoate",-8.9978390846,"CCCCCCCCCCCCCCCCCC(=O)OC","CCCCCCCCCCCCCCCCCC(=O)OC",-12.19822010647271,"CCCCCCCCCCCCCCCCCC(=O)OC",6.420900000000007,26.3,298.287180456,2,0,16,0,2,0,2,21,59,0,0,0,0,0,0,0,0,0,0,0,0.9473684210526315
"A-2319","1,2-Benzenedicarboxylic acid, di-C9-11-branched alkyl esters, C10-rich",-9.4195398078,"CC(C)CCCCCCCOC(=O)c1ccccc1C(=O)OCCCCCCCC(C)C","CC(C)CCCCCCCOC(=O)c1ccccc1C(=O)OCCCCCCCC(C)C",-6.13733674219003,"CC(C)CCCCCCCOC(=O)c1ccccc1C(=O)OCCCCCCCC(C)C",7.993400000000009,52.60000000000001,446.33960995199993,4,0,18,0,4,0,4,32,78,0,1,1,0,0,0,0,0,1,0,0,0.7142857142857143
"A-2321","Propylidynetrimethanol, ethoxylated, esters with acrylic acid",-2.687445856,"C=CC(=O)OCCOCC(CC)(COCCOC(=O)C=C)COCCOC(=O)C=C","C=CC(=O)OCCOCC(CC)(COCCOC(=O)C=C)COCCOC(=O)C=C",14.812779879319464,"C=CC(=O)OCCOCC(CC)(COCCOC(=O)C=C)COCCOC(=O)C=C",1.6202,106.59,428.2046326039999,9,0,19,0,9,0,9,30,62,0,0,0,0,0,0,0,0,0,0,0,0.5714285714285714
"A-2322","4-[(4-hydroxyphenyl)(pyridin-2-yl)methyl]phenol",-4.5239077972,"Oc1ccc(C(c2ccc(O)cc2)c2ccccn2)cc1","Oc1ccc(C(c2ccc(O)cc2)c2ccccn2)cc1",61.87565806254653,"Oc1ccc(C(c2ccc(O)cc2)c2ccccn2)cc1",3.6730000000000027,53.35,277.11027872000005,3,2,3,2,3,0,3,21,36,0,3,3,0,0,1,0,0,2,0,0,0.05555555555555555
"A-2334","2-(4-phenylbenzoyl)benzoic acid",-4.8282334666,"O=C([O-])c1ccccc1C(=O)c1ccc(-c2ccccc2)cc1","O=C([O-])c1ccccc1C(=O)c1ccc(-c2ccccc2)cc1",53.24059453775306,"O=C([O-])c1ccccc1C(=O)c1ccc(c2ccccc2)cc1",2.948100000000001,57.199999999999996,301.08701785591006,3,0,4,0,3,0,3,23,36,0,3,3,0,0,0,0,0,3,0,0,0
"A-2335","1,3,5,7-tetranitro-1,3,5,7-tetrazocane",-4.8251168095,"O=[N+]([O-])N1CN([N+](=O)[O-])CN([N+](=O)[O-])CN([N+](=O)[O-])C1","O=[N+]([O-])N1CN([N+](=O)[O-])CN([N+](=O)[O-])CN([N+](=O)[O-])C1",-309.5081783268021,"O=[N+]([O-])N1CN([N+](=O)[O-])CN([N+](=O)[O-])CN([N+](=O)[O-])C1",-2.195199999999998,185.52,296.04650921599995,16,0,4,0,8,0,16,20,28,0,1,0,1,1,0,1,1,0,0,0,1
"A-2337","2-[(E)-2-(1-cyano-1-methylpropyl)diazen-1-yl]-2-methylbutanenitrile",-2.6961915261,"CCC(C)(C#N)N=NC(C)(C#N)CC","CCC(C)(C#N)N=NC(C)(C#N)CC",50.22614487011782,"CCC(C)(C#N)N=NC(C)(C#N)CC",2.8231600000000014,72.3,192.13749651199998,4,0,4,0,4,0,4,14,30,2,0,0,0,0,0,0,0,0,0,0,0.8
"A-2342","4-(2,3,4-trihydroxybenzoyl)phenyl 5-oxo-6-[(1E)-tetraaza-1,3-dien-1-yl]-5,8-dihydronaphthalene-1-sulfonate",-5.1052907305,"N=NN=NC1=CCc2c(cccc2S(=O)(=O)Oc2ccc(C(=O)c3ccc(O)c(O)c3O)cc2)C1=O","N=NN=NC1=CCc2c(cccc2S(=O)(=O)Oc2ccc(C(=O)c3ccc(O)c(O)c3O)cc2)C1=O",100.79944431001262,"N=NN=NC1=CCc2c(cccc2S(=O)(=O)Oc2ccc(C(=O)c3ccc(O)c(O)c3O)cc2)C1=O",3.8229700000000024,199.12999999999997,508.06888447199987,12,4,7,4,10,0,13,36,52,0,4,3,0,1,0,0,0,3,0,1,0.043478260869565216
"A-2346","(ethenesulfonyl)methanesulfonylethene",-3.9198954495,"C=CS(=O)(=O)CS(=O)(=O)C=C","C=CS(=O)(=O)CS(=O)(=O)C=C",-75.56917361003947,"C=CS(=O)(=O)CS(=O)(=O)C=C",0.06050000000000022,68.28,195.986400736,4,0,4,0,4,0,6,11,19,0,0,0,0,0,0,0,0,0,0,0,0.2
"A-2348","4-(2-phenylpropan-2-yl)phenol",-4.0964847072,"CC(C)(c1ccccc1)c1ccc(O)cc1","CC(C)(c1ccccc1)c1ccc(O)cc1",38.6461046347333,"CC(C)(c1ccccc1)c1ccc(O)cc1",3.7181000000000024,20.23,212.120115132,1,1,2,1,1,0,1,16,32,0,2,2,0,0,0,0,0,2,0,0,0.2
"A-2352","methyl methanesulfonate",-0.0419214128,"COS(C)(=O)=O","COS(C)(=O)=O",-26.233327253911185,"COS(=O)(=O)C",-0.40759999999999996,43.370000000000005,110.003765052,3,0,1,0,3,0,4,6,12,0,0,0,0,0,0,0,0,0,0,0,1
"A-2363","2-azabicyclo[2.2.1]hept-5-en-3-one",0.9361608079,"O=C1NC2C=CC1C2","O=C1NC2C=CC1C2",21.168195843163716,"O=C1NC2C=CC1C2",0.060899999999999954,29.1,109.052763844,2,1,0,1,1,1,2,8,15,2,2,0,1,2,0,1,1,0,0,1,0.5
"A-2367","cyclohexylbenzene",-4.3415022783,"c1ccc(C2CCCCC2)cc1","c1ccc(C2CCCCC2)cc1",23.18810889600165,"c1ccc(C2CCCCC2)cc1",3.734300000000002,0,160.125200512,0,0,1,0,0,0,0,12,28,0,2,1,1,1,0,0,0,1,1,1,0.5
"A-2377","4,7,7-trimethylbicyclo[3.1.1]hept-3-ene",-3.7725704235,"CC1=CCC2CC1C2(C)C","CC1=CCC2CC1C2(C)C",22.105572412510675,"CC1=CCC2CC1C2(C)C",2.9987000000000013,0,136.125200512,0,0,0,0,0,0,0,10,26,2,3,0,1,3,0,0,0,0,1,3,0.8
"A-2378","2-(4-{2-[4-(oxiran-2-ylmethoxy)phenyl]propan-2-yl}phenoxymethyl)oxirane",-4.7996200318,"CC(C)(c1ccc(OCC2CO2)cc1)c1ccc(OCC2CO2)cc1","CC(C)(c1ccc(OCC2CO2)cc1)c1ccc(OCC2CO2)cc1",58.958000144183956,"CC(C)(c1ccc(OCC2CO2)cc1)c1ccc(OCC2CO2)cc1",3.567700000000002,43.519999999999996,340.16745924799994,4,0,8,0,4,0,4,25,49,2,4,2,2,2,0,2,2,2,0,0,0.42857142857142855
"A-2379","N,N-dimethylhexadecan-1-amine",-4.6524349135,"CCCCCCCCCCCCCCCC[NH+](C)C","CCCCCCCCCCCCCCCC[NH+](C)C",-0.91606374885939,"CCCCCCCCCCCCCCCC[NH+](C)C",4.612200000000003,4.44,270.31552670009,1,1,15,1,0,0,1,19,59,0,0,0,0,0,0,0,0,0,0,0,1
"A-2382","N,N-dimethyldodecan-1-amine",-4.4261227438,"CCCCCCCCCCCC[NH+](C)C","CCCCCCCCCCCC[NH+](C)C",-0.5100948532877557,"CCCCCCCCCCCC[NH+](C)C",3.051800000000001,4.44,214.25292644409,1,1,11,1,0,0,1,15,47,0,0,0,0,0,0,0,0,0,0,0,1
"A-2392","(1E)-1-(2,6,6-trimethylcyclohex-1-en-1-yl)pent-1-en-3-one; (1E)-1-(2,6,6-trimethylcyclohex-2-en-1-yl)pent-1-en-3-one; (3E)-3-methyl-4-(2,6,6-trimethylcyclohex-1-en-1-yl)but-3-en-2-one; (3E)-3-methyl-4-(2,6,6-trimethylcyclohex-2-en-1-yl)but-3-en-2-one",-3.9923409786,"CCC(=O)C=CC1C(C)=CCCC1(C)C","CCC(=O)C=CC1C(C)=CCCC1(C)C",23.723869439752974,"CCC(=O)C=CC1C(=CCCC1(C)C)C",3.904200000000003,17.07,206.167065324,1,0,3,0,1,0,1,15,37,1,1,0,0,1,0,0,0,0,0,1,0.6428571428571429
"A-2393","(3E)-3-methyl-4-(2,6,6-trimethylcyclohex-2-en-1-yl)but-3-en-2-one",-3.9923409786,"CC(=O)C(C)=CC1C(C)=CCCC1(C)C","CC(=O)C(C)=CC1C(C)=CCCC1(C)C",18.87644563524304,"CC(=O)C(=CC1C(=CCCC1(C)C)C)C",3.904200000000003,17.07,206.167065324,1,0,2,0,1,0,1,15,37,1,1,0,0,1,0,0,0,0,0,1,0.6428571428571429
"A-2394","(1R,2S,5R)-5-methyl-2-(propan-2-yl)cyclohexyl acetate",-3.9751165598,"CC(=O)O[C@@H]1C[C@H](C)CC[C@H]1C(C)C","CC(=O)O[C@@H]1C[C@H](C)CC[C@H]1C(C)C",5.707664469594416,"CC(=O)O[C@@H]1C[C@H](C)CC[C@H]1C(C)C",3.0103000000000018,26.3,198.161979944,2,0,2,0,2,0,2,14,36,3,1,0,1,1,0,0,0,0,1,1,0.9166666666666666
"A-2395","3-oxo-N-[4-(3-oxobutanamido)phenyl]butanamide",-3.1275010898,"CC(=O)CC(=O)Nc1ccc(NC(=O)CC(C)=O)cc1","CC(=O)CC(=O)Nc1ccc(NC(=O)CC(C)=O)cc1",-14.606502112795813,"CC(=O)CC(=O)Nc1ccc(NC(=O)CC(=O)C)cc1",1.5217999999999998,92.34,276.111006992,6,2,6,2,4,2,6,20,36,0,1,1,0,0,0,0,0,1,0,0,0.2857142857142857
"A-2401","benzyl benzoate",-4.1776244939,"O=C(OCc1ccccc1)c1ccccc1","O=C(OCc1ccccc1)c1ccccc1",14.438685874950828,"O=C(OCc1ccccc1)c1ccccc1",3.0436000000000014,26.3,212.083729624,2,0,3,0,2,0,2,16,28,0,2,2,0,0,0,0,0,2,0,0,0.07142857142857142
"A-2402","1,1'-sulfonyldibenzene",-4.1928799405,"O=S(=O)(c1ccccc1)c1ccccc1","O=S(=O)(c1ccccc1)c1ccccc1",21.941493218855335,"O=S(=O)(c1ccccc1)c1ccccc1",2.519400000000001,34.14,218.04015056,2,0,2,0,2,0,3,15,25,0,2,2,0,0,0,0,0,2,0,0,0
"A-2403","1-(morpholin-4-yl)prop-2-en-1-one",0.8502575853,"C=CC(=O)N1CCOCC1","C=CC(=O)N1CCOCC1",27.72399286425035,"C=CC(=O)N1CCOCC1",0.031199999999999894,29.540000000000003,141.078978592,3,0,1,0,2,1,3,10,21,0,1,0,1,1,0,1,1,0,0,0,0.5714285714285714
"A-2413","dioctadecyl (E)-but-2-enedioate",-7.094152366,"CCCCCCCCCCCCCCCCCCOC(=O)C=CC(=O)OCCCCCCCCCCCCCCCCCC","CCCCCCCCCCCCCCCCCCOC(=O)C=CC(=O)OCCCCCCCCCCCCCCCCCC",-30.971178149495422,"CCCCCCCCCCCCCCCCCCOC(=O)C=CC(=O)OCCCCCCCCCCCCCCCCCC",13.151999999999976,52.60000000000001,620.5743609119999,4,0,36,0,4,0,4,44,120,0,0,0,0,0,0,0,0,0,0,0,0.9
"A-2417","ethyl 2-[di(phenyl)methylideneamino]acetate",-3.4270444492,"CCOC(=O)CN=C(c1ccccc1)c1ccccc1","CCOC(=O)CN=C(c1ccccc1)c1ccccc1",83.08041016740059,"CCOC(=O)CN=C(c1ccccc1)c1ccccc1",3.0871000000000013,38.66,267.125928784,3,0,5,0,3,0,3,20,37,0,2,2,0,0,0,0,0,2,0,0,0.17647058823529413
"A-2418","3,9-bis(2,6-di-tert-butyl-4-methylphenoxy)-2,4,8,10-tetraoxa-3,9-diphosphaspiro[5.5]undecane",-7.801238331,"Cc1cc(C(C)(C)C)c(OP2OCC3(CO2)COP(Oc2c(C(C)(C)C)cc(C)cc2C(C)(C)C)OC3)c(C(C)(C)C)c1","Cc1cc(C(C)(C)C)c(OP2OCC3(CO2)COP(Oc2c(C(C)(C)C)cc(C)cc2C(C)(C)C)OC3)c(C(C)(C)C)c1",22.16102375843889,"Cc1cc(C(C)(C)C)c(OP2OCC3(CO2)COP(Oc2c(C(C)(C)C)cc(C)cc2C(C)(C)C)OC3)c(C(C)(C)C)c1",10.485039999999994,55.38000000000001,632.339562708,6,0,4,0,6,0,8,43,97,0,4,2,2,2,0,2,2,2,0,0,0.6571428571428571
"A-2420","1,4-diethyl 2-{[4-({4-[(1,4-diethoxy-1,4-dioxobutan-2-yl)amino]-3-methylcyclohexyl}methyl)-2-methylcyclohexyl]amino}butanedioate",-5.0665338896,"CCOC(=O)CC([NH2+]C1CCC(CC2CCC([NH2+]C(CC(=O)OCC)C(=O)OCC)C(C)C2)CC1C)C(=O)OCC","CCOC(=O)CC([NH2+]C1CCC(CC2CCC([NH2+]C(CC(=O)OCC)C(=O)OCC)C(C)C2)CC1C)C(=O)OCC",-73.98363773243781,"CCOC(=O)CC([NH2+]C1CCC(CC2CCC([NH2+]C(CC(=O)OCC)C(=O)OCC)C(C)C2)CC1C)C(=O)OCC",1.8827000000000065,138.42000000000002,584.4025695921798,10,4,16,2,8,0,10,41,97,8,2,0,2,2,0,0,0,0,2,2,0.8709677419354839
"A-2421","N-(carboxymethyl)-3-(dodecanoylamino)-N,N-dimethylpropan-1-aminium hydroxide",-3.1367509984,"CCCCCCCCCCCC(=O)NCCC[N+](C)(C)CC(=O)[O-]","CCCCCCCCCCCC(=O)NCCC[N+](C)(C)CC(=O)[O-]",-7.191330738158754,"CCCCCCCCCCCC(=O)NCCC[N+](C)(C)CC(=O)[O-]",2.2399000000000004,69.23,342.28824307599996,5,1,16,1,3,1,5,24,62,0,0,0,0,0,0,0,0,0,0,0,0.8947368421052632
"A-2423","2-[2-(dimethylamino)ethoxy]ethan-1-ol",-0.1244748796,"C[NH+](C)CCOCCO","C[NH+](C)CCOCCO",24.424817596419185,"C[NH+](C)CCOCCO",-1.8601999999999976,33.900000000000006,134.11755517209,3,2,5,2,2,0,3,9,25,0,0,0,0,0,0,0,0,0,0,0,1
"A-2424","4-nitrobenzene-1,3-diamine",-2.1850914787,"Nc1ccc([N+](=O)[O-])c(N)c1","Nc1ccc([N+](=O)[O-])c(N)c1",19.575574185901438,"Nc1ccc([N+](=O)[O-])c(N)c1",0.7592000000000001,95.17999999999999,153.053826464,5,4,1,2,4,0,5,11,18,0,1,1,0,0,0,0,0,1,0,0,0
"A-2430","trans-1-(1-oxohexadecyl)-4-[(1-oxohexadecyl)oxy]-L-proline",-5.7838757207,"CCCCCCCCCCCCCCCC(=O)O[C@@H]1C[C@@H](C(=O)[O-])N(C(=O)CCCCCCCCCCCCCCC)C1","CCCCCCCCCCCCCCCC(=O)O[C@@H]1C[C@@H](C(=O)[O-])N(C(=O)CCCCCCCCCCCCCCC)C1",26.748588037315187,"CCCCCCCCCCCCCCCC(=O)O[C@@H]1C[C@@H](C(=O)[O-])N(C(=O)CCCCCCCCCCCCCCC)C1",9.211600000000002,86.74000000000001,606.5102978559099,6,0,30,0,5,1,6,43,111,2,1,0,1,1,0,1,1,0,0,0,0.918918918918919
"A-2434","triphenylphosphane",-6.2013011004,"c1ccc(P(c2ccccc2)c2ccccc2)cc1","c1ccc(P(c2ccccc2)c2ccccc2)cc1",53.38093340681139,"c1ccc(P(c2ccccc2)c2ccccc2)cc1",3.4448000000000016,0,262.09113711000003,0,0,3,0,0,0,1,19,34,0,3,3,0,0,0,0,0,3,0,0,0
"A-2436","3,7-dimethylocta-1,6-diene",-5.9645864462,"C=CC(C)CCC=C(C)C","C=CC(C)CCC=C(C)C",3.2995726760054835,"C=CC(C)CCC=C(C)C",3.5549000000000026,0,138.140850576,0,0,4,0,0,0,0,10,28,1,0,0,0,0,0,0,0,0,0,0,0.6
"A-2438","2-ethylhexyl 2-({2-[(2-ethylhexyl)oxy]-2-oxoethyl}sulfanyl)acetate",-6.6549981706,"CCCCC(CC)COC(=O)CSCC(=O)OCC(CC)CCCC","CCCCC(CC)COC(=O)CSCC(=O)OCC(CC)CCCC",34.125293398217124,"CCCCC(CC)COC(=O)CSCC(=O)OCC(CC)CCCC",5.238800000000006,52.60000000000001,374.249080696,4,0,16,0,5,0,5,25,63,2,0,0,0,0,0,0,0,0,0,0,0.9
"A-2442","2-(4-methylpent-3-enyl)anthracene-9,10-dione",-7.9858185244,"CC(C)=CCCc1ccc2c(c1)C(=O)c1ccccc1C2=O","CC(C)=CCCc1ccc2c(c1)C(=O)c1ccccc1C2=O",36.70426604033878,"CC(=CCCc1ccc2c(c1)C(=O)c1ccccc1C2=O)C",4.360800000000004,34.14,290.130679816,2,0,3,0,2,0,2,22,40,0,3,2,0,1,0,0,0,2,0,1,0.2
"A-2443","O1-nonyl O2-octyl benzene-1,2-dicarboxylate",-4.7809414151,"CCCCCCCCCOC(=O)c1ccccc1C(=O)OCCCCCCCC","CCCCCCCCCOC(=O)c1ccccc1C(=O)OCCCCCCCC",-9.856340411177683,"CCCCCCCCCOC(=O)c1ccccc1C(=O)OCCCCCCCC",7.111300000000008,52.60000000000001,404.29265976,4,0,17,0,4,0,4,29,69,0,1,1,0,0,0,0,0,1,0,0,0.68
"A-2450","3-[3-(9-methyldecoxy)propylamino]propanenitrile",-3.6184664922,"CC(C)CCCCCCCCOCCCNCCC#N","CC(C)CCCCCCCCOCCCNCCC#N",-2.965613734472635,"CC(C)CCCCCCCCOCCCNCCC#N",4.2830800000000036,45.05,282.267113708,3,1,15,1,3,0,3,20,54,0,0,0,0,0,0,0,0,0,0,0,0.9411764705882353
"A-2451","[(1S)-3-(4-methylpent-3-enyl)-1-cyclohex-3-enyl]methyl acetate",-4.9756247854,"CC(=O)OC[C@H]1CCC=C(CCC=C(C)C)C1","CC(=O)OC[C@H]1CCC=C(CCC=C(C)C)C1",2.2980332627595876,"CC(=O)OC[C@H]1CCC=C(CCC=C(C)C)C1",4.022400000000004,26.3,236.177630008,2,0,5,0,2,0,2,17,41,1,1,0,0,1,0,0,0,0,0,1,0.6666666666666666
"A-2453","2-acetyl-4-({4-[(3-acetyl-4-amino-9,10-dioxo-9,10-dihydroanthracen-1-yl)amino]-6-phenyl-1,3,5-triazin-2-yl}amino)-1-amino-9,10-dihydroanthracene-9,10-dione",-4.9504317948,"CC(=O)c1cc(Nc2nc(Nc3cc(C(C)=O)c(N)c4c3C(=O)c3ccccc3C4=O)nc(-c3ccccc3)n2)c2c(c1N)C(=O)c1ccccc1C2=O","CC(=O)c1cc(Nc2nc(Nc3cc(C(C)=O)c(N)c4c3C(=O)c3ccccc3C4=O)nc(-c3ccccc3)n2)c2c(c1N)C(=O)c1ccccc1C2=O",-29.019755233922965,"CC(=O)c1cc(Nc2nc(Nc3cc(C(=O)C)c(N)c4c3C(=O)c3ccccc3C4=O)nc(c3ccccc3)n2)c2c(c1N)C(=O)c1ccccc1C2=O",6.146200000000005,217.18999999999997,713.2022815839999,13,6,7,4,13,0,13,54,81,0,8,6,0,2,1,0,0,5,0,2,0.04878048780487805
"A-2455","Glycerides, C16-22",-4.7267916006,"CCCCCCCCCCCCCCCC(=O)OCC(O)CO","CCCCCCCCCCCCCCCC(=O)OCC(O)CO",0.16263973475696236,"CCCCCCCCCCCCCCCC(=O)OCC(O)CO",4.364100000000005,66.76,330.27700969599994,4,2,17,2,4,0,4,23,61,1,0,0,0,0,0,0,0,0,0,0,0.9473684210526315
"A-2458","2-{2-[(8E)-heptadec-8-en-1-yl]-4,5-dihydro-1H-imidazol-1-yl}ethan-1-ol",-3.8458307588,"CCCCCCCCC=CCCCCCCCC1=[NH+]CCN1CCO","CCCCCCCCC=CCCCCCCCC1=[NH+]CCN1CCO",42.30771447010909,"CCCCCCCCC=CCCCCCCCC1=[NH+]CCN1CCO",3.8109000000000024,37.44,351.33699041609,3,2,17,2,2,0,3,25,68,0,1,0,0,1,0,0,1,0,0,0,0.8636363636363636
"A-2463","[(2R,3R)-5,7-dihydroxy-2-(3,4,5-trihydroxyphenyl)chroman-3-yl] 3,4,5-trihydroxybenzoate",-1.0591609316,"O=C(O[C@@H]1Cc2c(O)cc(O)cc2O[C@@H]1c1cc(O)c(O)c(O)c1)c1cc(O)c(O)c(O)c1","O=C(O[C@@H]1Cc2c(O)cc(O)cc2O[C@@H]1c1cc(O)c(O)c(O)c1)c1cc(O)c(O)c(O)c1",56.54863393100245,"O=C(O[C@@H]1Cc2c(O)cc(O)cc2O[C@@H]1c1cc(O)c(O)c(O)c1)c1cc(O)c(O)c(O)c1",2.233199999999999,197.36999999999998,458.0849113959999,11,8,3,8,11,0,11,33,51,2,4,3,0,1,0,0,1,3,0,0,0.13636363636363635
"A-2464","Alcohols, C16-18 and C18-unsatd., ethoxylated",-4.7999839607,"CCC=CCCCCCCCCCCCCCCOCC","CCC=CCCCCCCCCCCCCCCOCC",-1.3850209519622272,"CCC=CCCCCCCCCCCCCCCOCC",7.060400000000008,9.23,296.3079159,1,0,17,0,1,0,1,21,61,0,0,0,0,0,0,0,0,0,0,0,0.9
"A-2466","2,2-dimethyl-4-phenylpentanenitrile",-3.2350788163,"CC(CC(C)(C)C#N)c1ccccc1","CC(CC(C)(C)C#N)c1ccccc1",16.755189851404594,"CC(CC(C)(C)C#N)c1ccccc1",3.729980000000003,23.79,187.136099544,1,0,3,0,1,0,1,14,31,1,1,1,0,0,0,0,0,1,0,0,0.46153846153846156
"A-2467","4-tert-butylcyclohexyl acetate",-3.6996406686,"CC(=O)OC1CCC(C(C)(C)C)CC1","CC(=O)OC1CCC(C(C)(C)C)CC1",7.0511031057314675,"CC(=O)OC1CCC(C(C)(C)C)CC1",3.1544000000000016,26.3,198.161979944,2,0,1,0,2,0,2,14,36,0,1,0,1,1,0,0,0,0,1,1,0.9166666666666666
"A-2470","17-hydroxyandrostan-3-one",-4.9189988507,"C[C@]12CC[C@H]3[C@@H](CC[C@H]4CC(=O)CC[C@@]43C)[C@@H]1CC[C@@H]2O","C[C@]12CC[C@H]3[C@@H](CC[C@H]4CC(=O)CC[C@@]43C)[C@@H]1CC[C@@H]2O",52.44785530258978,"C[C@]12CC[C@H]3[C@@H](CC[C@H]4CC(=O)CC[C@]34C)[C@@H]1CC[C@@H]2O",3.9591000000000034,37.3,290.2245802,2,1,0,1,2,0,2,21,51,7,4,0,4,4,0,0,0,0,4,4,0.9473684210526315
"A-2471","1-cyclohexyl-3-[4-({4-[(cyclohexylcarbamoyl)amino]phenyl}methyl)phenyl]urea",-5.142667396,"O=C(Nc1ccc(Cc2ccc(NC(=O)NC3CCCCC3)cc2)cc1)NC1CCCCC1","O=C(Nc1ccc(Cc2ccc(NC(=O)NC3CCCCC3)cc2)cc1)NC1CCCCC1",11.437571044663692,"O=C(Nc1ccc(Cc2ccc(NC(=O)NC3CCCCC3)cc2)cc1)NC1CCCCC1",6.185800000000005,82.26,448.283826392,6,4,6,4,2,4,6,33,69,0,4,2,2,2,0,0,0,2,2,2,0.48148148148148145
"A-2473","2,4-dioxo-1,3-diazetidine-1,3-bis(methyl-m-phenylene) diisocyanate",-5.0368259397,"Cc1ccc(N2C(=O)N(c3ccc(C)c(N=C=O)c3)C2=O)cc1N=C=O","Cc1ccc(N2C(=O)N(c3ccc(C)c(N=C=O)c3)C2=O)cc1N=C=O",-8.522474791387621,"Cc1ccc(N2C(=O)N(c3ccc(C)c(N=C=O)c3)C2=O)cc1N=C=O",3.8046400000000027,99.48000000000002,348.085854864,8,0,4,0,6,4,8,26,38,0,3,2,1,1,0,1,1,2,0,0,0.1111111111111111
"A-2474","(2R)-2-[(2R,3R,4S)-3,4-dihydroxyoxolan-2-yl]-2-hydroxyethyl dodecanoate",-5.0625368604,"CCCCCCCCCCCC(=O)OCC(O)[C@H]1OC[C@@H](O)[C@@H]1O","CCCCCCCCCCCC(=O)OCC(O)[C@H]1OC[C@@H](O)[C@@H]1O",27.433249461976406,"CCCCCCCCCCCC(=O)OCC(O)[C@H]1OC[C@@H](O)[C@@H]1O",1.931999999999999,96.22000000000001,346.23553880799994,6,3,13,3,6,0,6,24,58,4,1,0,1,1,0,1,1,0,0,0,0.9444444444444444
"A-2476","methyl 2-({4-[2-(2-cyano-4-nitrophenyl)diazen-1-yl]-3-acetamidophenyl}(2-methoxy-2-oxoethyl)amino)acetate",-5.1935197379,"COC(=O)CN(CC(=O)OC)c1ccc(N=Nc2ccc([N+](=O)[O-])cc2C#N)c(NC(C)=O)c1","COC(=O)CN(CC(=O)OC)c1ccc(N=Nc2ccc([N+](=O)[O-])cc2C#N)c(NC(C)=O)c1",121.82565268550026,"COC(=O)CN(CC(=O)OC)c1ccc(N=Nc2ccc([N+](=O)[O-])cc2C#N)c(NC(=O)C)c1",2.992680000000001,176.59,468.13934698,13,1,9,1,11,1,13,34,54,0,2,2,0,0,0,0,0,2,0,0,0.23809523809523808
"A-2478","4-[(E)-2-{3-[(E)-2-(2,4-diaminophenyl)diazen-1-yl]phenyl}diazen-1-yl]benzene-1,3-diamine",-4.197152695,"Nc1ccc(N=Nc2cccc(N=Nc3ccc(N)cc3N)c2)c(N)c1","Nc1ccc(N=Nc2cccc(N=Nc3ccc(N)cc3N)c2)c(N)c1",64.8401420027101,"Nc1ccc(N=Nc2cccc(N=Nc3ccc(N)cc3N)c2)c(N)c1",4.846200000000002,153.51999999999998,346.16544257600003,8,8,4,4,8,0,8,26,44,0,3,3,0,0,0,0,0,3,0,0,0
"A-2483","2-[(2-cyanoethyl)[4-[(6-nitrobenzothiazol-2-yl)azo]phenyl]amino]ethyl acetate",-4.3409088983,"CC(=O)OCCN(CCC#N)c1ccc(N=Nc2nc3ccc([N+](=O)[O-])cc3s2)cc1","CC(=O)OCCN(CCC#N)c1ccc(N=Nc2nc3ccc([N+](=O)[O-])cc3s2)cc1",62.44038819989297,"CC(=O)OCCN(CCC#N)c1ccc(N=Nc2nc3ccc([N+](=O)[O-])cc3s2)cc1",4.903080000000004,134.08,438.11102405599996,10,0,9,0,10,0,11,31,49,0,3,3,0,0,1,0,0,2,0,0,0.25
"A-2484","2-[(E)-2-{4-[(E)-2-(2-cyanophenyl)ethenyl]phenyl}ethenyl]benzonitrile",-4.2206388586,"N#Cc1ccccc1C=Cc1ccc(C=Cc2ccccc2C#N)cc1","N#Cc1ccccc1C=Cc1ccc(C=Cc2ccccc2C#N)cc1",57.06296909388311,"N#Cc1ccccc1C=Cc1ccc(C=Cc2ccccc2C#N)cc1",5.7707600000000046,47.58,332.131348512,2,0,4,0,2,0,2,26,42,0,3,3,0,0,0,0,0,3,0,0,0
"A-2486","3-[[2-(acetyloxy)ethyl][4-[(4-nitrophenyl)azo]phenyl]amino]propiononitrile",-4.2803415835,"CC(=O)OCCN(CCC#N)c1ccc(N=Nc2ccc([N+](=O)[O-])cc2)cc1","CC(=O)OCCN(CCC#N)c1ccc(N=Nc2ccc([N+](=O)[O-])cc2)cc1",61.20934580804663,"CC(=O)OCCN(CCC#N)c1ccc(N=Nc2ccc([N+](=O)[O-])cc2)cc1",4.2933800000000035,121.19,381.143704088,9,0,9,0,8,0,9,28,47,0,2,2,0,0,0,0,0,2,0,0,0.2631578947368421
"A-2491","1-methyl-3-oxoandrostan-17-yl acetate",-5.0925589945,"CC(=O)O[C@H]1CC[C@H]2[C@@H]3CC[C@H]4CC(=O)C[C@H](C)[C@]4(C)[C@H]3CC[C@]12C","CC(=O)O[C@H]1CC[C@H]2[C@@H]3CC[C@H]4CC(=O)C[C@H](C)[C@]4(C)[C@H]3CC[C@]12C",41.87276513909654,"CC(=O)O[C@H]1CC[C@H]2[C@@H]3CC[C@H]4CC(=O)C[C@H](C)[C@]4(C)[C@H]3CC[C@]12C",4.7759000000000045,43.370000000000005,346.25079494799996,3,0,1,0,3,0,3,25,59,8,4,0,4,4,0,0,0,0,4,4,0.9090909090909091
"A-2493","2,3-Dihydroxypropyl docosanoate",-6.9187336597,"CCCCCCCCCCCCCCCCCCCCCC(=O)OCC(O)CO","CCCCCCCCCCCCCCCCCCCCCC(=O)OCC(O)CO",-0.4816322940366389,"CCCCCCCCCCCCCCCCCCCCCC(=O)OCC(O)CO",6.704700000000009,66.76,414.3709100799999,4,2,23,2,4,0,4,29,79,1,0,0,0,0,0,0,0,0,0,0,0.96
"A-2504","2-tert-butylbenzene-1,4-diol",-1.220683278,"CC(C)(C)c1cc(O)ccc1O","CC(C)(C)c1cc(O)ccc1O",21.54160422517759,"CC(C)(C)c1cc(O)ccc1O",2.395300000000001,40.46,166.099379688,2,2,0,2,2,0,2,12,26,0,1,1,0,0,0,0,0,1,0,0,0.4
"A-2505","4-methoxy-2-nitroaniline",-1.2257020372,"COc1ccc(N)c([N+](=O)[O-])c1","COc1ccc(N)c([N+](=O)[O-])c1",24.701502174440698,"COc1ccc(N)c([N+](=O)[O-])c1",1.1855999999999998,78.39,168.053492116,5,2,2,1,4,0,5,12,20,0,1,1,0,0,0,0,0,1,0,0,0.14285714285714285
"A-2506","1,1-diethoxy-3,7-dimethylocta-2,6-diene",-2.3547996853,"CCOC(C=C(C)CCC=C(C)C)OCC","CCOC(C=C(C)CCC=C(C)C)OCC",-5.553168645872146,"CCOC(C=C(C)CCC=C(C)C)OCC",4.078200000000003,18.46,226.193280072,2,0,8,0,2,0,2,16,42,0,0,0,0,0,0,0,0,0,0,0,0.7142857142857143
"A-2507","1H-1,3-benzodiazole-2-thiol",-2.176687281,"S=c1[nH]c2ccccc2[nH]1","S=C1Nc2ccccc2N1",24.7062101462829,"S=c1[nH]c2ccccc2[nH]1",1.8089,24.06,150.025169192,2,2,0,2,1,0,3,10,16,0,2,1,0,1,0,0,1,1,0,0,0