"ID","Name","Solubility","SMILES Canonical","Smiles (Optimized Geometry)","Energy","Smiles","SlogP","TPSA","ExactMW","NumLipinskiHBA","NumLipinskiHBD","NumRotatableBonds","NumHBD","NumHBA","NumAmideBonds","NumHeteroAtoms","NumHeavyAtoms","NumAtoms","NumStereocenters","NumRings","NumAromaticRings","NumSaturatedRings","NumAliphaticRings","NumAromaticHeterocycles","NumSaturatedHeterocycles","NumAliphaticHeterocycles","NumAromaticCarbocycles","NumSaturatedCarbocycles","NumAliphaticCarbocycles","FractionCSP3"
"B-2143","1,1,4,4-tetramethoxy-but-2-ene",0.055,"COC(C=CC(OC)OC)OC","COC(C=CC(OC)OC)OC",-39.092766979475215,"COC(C=CC(OC)OC)OC",0.7804,36.92,176.104858992,4,0,6,0,4,0,4,12,28,0,0,0,0,0,0,0,0,0,0,0,0.75
"B-2146","phosphonothioic  dihydrazide, p-phenyl-",-1.425,"NNP(=S)(NN)c1ccccc1","NNP(=S)(NN)c1ccccc1",19.472854303111212,"NNP(=S)(NN)c1ccccc1",-0.4519999999999993,76.1,202.04420398199997,4,6,3,4,3,0,6,12,23,0,1,1,0,0,0,0,0,1,0,0,0
"B-2147","acetic acid, (3,5-dimethylphenoxy)-",-2.3527,"Cc1cc(C)cc(OCC(=O)[O-])c1","Cc1cc(C)cc(OCC(=O)[O-])c1",67.11565710182867,"Cc1cc(C)cc(OCC(=O)[O-])c1",0.43213999999999986,49.36,179.07136779191,3,0,3,0,3,0,3,13,24,0,1,1,0,0,0,0,0,1,0,0,0.3
"B-2149","n-hexyl-lactamide",-0.9487,"CCCCCCNC(=O)C(C)O","CCCCCCNC(=O)C(C)O",10.021208633372686,"CCCCCCNC(=O)C(C)O",1.0636999999999999,49.33,173.141578848,3,2,6,2,2,1,3,12,31,1,0,0,0,0,0,0,0,0,0,0,0.8888888888888888
"B-2150","2-acetoxy-propionic acid butyl ester",-0.7536,"CCCCOC(=O)C(C)OC(C)=O","CCCCOC(=O)C(C)OC(C)=O",-3.614409526747682,"CCCCOC(=O)C(C)OC(=O)C",1.2813,52.6,188.104858992,4,0,5,0,4,0,4,13,29,1,0,0,0,0,0,0,0,0,0,0,0.7777777777777778
"B-2151","1h-purine-2,6-dione, 8-ethyl-3,7-dihydro-1,3,7-t",-1.5687,"CCc1nc2c(c(=O)n(C)c(=O)n2C)n1C","CCc1nc2c(n1C)C(=O)N(C)C(=O)N2C",-127.60988121440889,"CCc1nc2c(n1C)c(=O)n(C)c(=O)n2C",0.6242999999999999,58.440000000000005,222.111675688,6,0,1,0,4,3,6,16,30,0,2,1,0,1,1,0,1,0,0,0,0.5
"B-2152","imidodicarbonimidic diamide, n-2-naphthalenyl-",-2.5497,"NC(N)=[NH+]C(N)=[NH+]c1ccc2ccccc2c1","NC(N)=[NH+]C(N)=[NH+]c1ccc2ccccc2c1",25.342865219382844,"NC(=[NH+]C(=[NH+]c1ccc2ccccc2c1)N)N",-2.779399999999999,106,229.13164832017998,5,8,1,5,0,0,5,17,32,0,2,2,0,0,0,0,0,2,0,0,0
"B-2153","(2,5-dioxoimidazolidin-4-yl)acetic acid",-1.1517,"O=C([O-])CC1NC(=O)NC1=O","O=C([O-])CC1NC(=O)NC1=O",-50.37989441805749,"O=C([O-])CC1NC(=O)NC1=O",-2.6655999999999995,98.32999999999998,157.02548021991,6,2,2,2,4,3,6,11,16,1,1,0,1,1,0,1,1,0,0,0,0.4
"B-2154","phenol, 2-methyl-5-nitro-",-2.1851,"Cc1ccc([N+](=O)[O-])cc1O","Cc1ccc([N+](=O)[O-])cc1O",18.974453656082613,"Cc1ccc([N+](=O)[O-])cc1O",1.6088199999999997,63.370000000000005,153.042593084,4,1,1,1,3,0,4,11,18,0,1,1,0,0,0,0,0,1,0,0,0.14285714285714285
"B-2155","carbamothioic acid, s-[2-oxo-2-(phenylamino)ethy",-1.3228,"NC(=O)SCC(=O)Nc1ccccc1","NC(=O)SCC(=O)Nc1ccccc1",8.975458913239988,"NC(=O)SCC(=O)Nc1ccccc1",1.437,72.19,210.04629856,4,3,3,2,3,2,5,14,24,0,1,1,0,0,0,0,0,1,0,0,0.1111111111111111
"B-2156","butanedioic acid, (diphenylmethylene)-, 1-ethyl",-2.1908,"CCOC(=O)C(CC(=O)[O-])=C(c1ccccc1)c1ccccc1","CCOC(=O)C(CC(=O)[O-])=C(c1ccccc1)c1ccccc1",45.19579938403754,"CCOC(=O)C(=C(c1ccccc1)c1ccccc1)CC(=O)[O-]",2.1915999999999993,66.43,309.11323260391003,4,0,6,0,4,0,4,23,40,0,2,2,0,0,0,0,0,2,0,0,0.15789473684210525
"B-2158","4h-pyran-3,5-dicarboxylic acid, 2,6-dimethyl-4-o",-1.5255,"CCOC(=O)c1c(C)oc(C)c(C(=O)OCC)c1=O","CCOC(=O)C1=C(C)OC(C)=C(C(=O)OCC)C1=O",-23.350115926177416,"CCOC(=O)c1c(C)oc(C)c(C(=O)OCC)c1=O",1.2599,78.9,268.094688232,6,0,4,0,6,0,6,19,35,0,1,0,0,1,0,0,1,0,0,0,0.46153846153846156
"B-2160","l-glutamic acid, n,n-bis(2-cyanoethyl)-",-0.2275,"N#CCC[NH+](CCC#N)C(CCC(=O)[O-])C(=O)[O-]","N#CCC[NH+](CCC#N)C(CCC(=O)[O-])C(=O)[O-]",-81.55585873405371,"N#CCC[NH+](CCC#N)C(CCC(=O)[O-])C(=O)[O-]",-3.652739999999997,132.28,252.09897950791,7,1,9,1,6,0,7,18,32,1,0,0,0,0,0,0,0,0,0,0,0.6363636363636364
"B-2161","dl-methionine, n,n-bis(2-cyanoethyl)-",-1.3279,"CSCCC(C(=O)[O-])[NH+](CCC#N)CCC#N","CSCCC(C(=O)[O-])[NH+](CCC#N)CCC#N",-53.00363805200325,"CSCCC(C(=O)[O-])[NH+](CCC#N)CCC#N",-1.4297399999999973,92.14999999999998,255.104147784,5,1,9,1,5,0,6,17,34,1,0,0,0,0,0,0,0,0,0,0,0.7272727272727273
"B-2162","propanoic acid, 2-hydroxy-, octyl ester",-1.2726,"CCCCCCCCOC(=O)C(C)O","CCCCCCCCOC(=O)C(C)O",13.301451615190457,"CCCCCCCCOC(=O)C(C)O",2.2709000000000006,46.53,202.156894564,3,1,8,1,3,0,3,14,36,1,0,0,0,0,0,0,0,0,0,0,0.9090909090909091
"B-2163","2h-1,4-benzoxazin-3(4h)-one",-2.5716,"O=C1COc2ccccc2N1","O=C1COc2ccccc2N1",46.78701412216873,"O=C1COc2ccccc2N1",1.0174999999999998,38.33,149.047678464,3,1,0,1,2,1,3,11,18,0,2,1,0,1,0,0,1,1,0,0,0.125
"B-2164","2-butenedioic acid, 2-propyl-, (e)-",-1.1538,"CCCC(=CC(=O)[O-])C(=O)[O-]","CCCC(=CC(=O)[O-])C(=O)[O-]",77.51174098297346,"CCCC(=CC(=O)[O-])C(=O)[O-]",-1.7872999999999988,80.25999999999999,156.04335589582,4,0,4,0,4,0,4,11,19,0,0,0,0,0,0,0,0,0,0,0,0.42857142857142855
"B-2165","1,4-piperazinedicarboxylic acid, diethyl ester",-0.7288,"CCOC(=O)N1CCN(C(=O)OCC)CC1","CCOC(=O)N1CCN(C(=O)OCC)CC1",-72.10445359026384,"CCOC(=O)N1CCN(C(=O)OCC)CC1",0.9170000000000003,59.08,230.126657056,6,0,2,0,4,2,6,16,34,0,1,0,1,1,0,1,1,0,0,0,0.8
"B-2166","2,6-di-sec-butylphenol",-5.0593,"CC[C@H](C)c1cccc([C@H](C)CC)c1O","CC[C@H](C)c1cccc([C@H](C)CC)c1O",20.18264122379917,"CC[C@H](C)c1cccc([C@H](C)CC)c1O",4.4192000000000045,20.23,206.167065324,1,1,4,1,1,0,1,15,37,2,1,1,0,0,0,0,0,1,0,0,0.5714285714285714
"B-2167","pyrene, 1-nitro-",-7.3213,"O=[N+]([O-])c1ccc2ccc3cccc4ccc1c2c34","O=[N+]([O-])c1ccc2ccc3cccc4ccc1c2c34",62.56331300108875,"O=[N+]([O-])c1ccc2ccc3cccc4ccc1c2c34",4.492200000000002,43.14,247.063328528,3,0,1,0,2,0,3,19,28,0,4,4,0,0,0,0,0,4,0,0,0
"B-2168","hydrazinecarboxamide, 1-ethyl-2-[(5-nitro-2-fura",-2.9395,"CCN(N=Cc1ccc([N+](=O)[O-])o1)C(N)=O","CCN(N=Cc1ccc([N+](=O)[O-])o1)C(N)=O",81.09249748720396,"CCN(N=Cc1ccc([N+](=O)[O-])o1)C(=O)N",0.9223000000000001,114.97,226.0702048,8,2,4,1,5,2,8,16,26,0,1,1,0,0,1,0,0,0,0,0,0.25
"B-2169","6-phenylcaproic acid",-2.6026,"O=C([O-])CCCCCc1ccccc1","O=C([O-])CCCCCc1ccccc1",16.43239182588206,"O=C([O-])CCCCCc1ccccc1",1.5393999999999997,40.129999999999995,191.10775329991,2,0,6,0,2,0,2,14,29,0,1,1,0,0,0,0,0,1,0,0,0.4166666666666667
"B-2170","3-methyl-3-heptanol",-1.7356,"CCCCC(C)(O)CC","CCCCC(C)(O)CC",5.734546932923816,"CCCCC(C)(O)CC",2.3376,20.23,130.135765196,1,1,4,1,1,0,1,9,27,1,0,0,0,0,0,0,0,0,0,0,1
"B-2171","1-cyclopentene-1-carboxylic acid, 2,3,3-trimethy",-2.8871,"CC1=C(C(=O)[O-])CCC1(C)C","CC1=C(C(=O)[O-])CCC1(C)C",14.80768547882035,"CC1=C(C(=O)[O-])CCC1(C)C",0.8727999999999998,40.129999999999995,153.09210323591,2,0,1,0,2,0,2,11,24,0,1,0,0,1,0,0,0,0,0,1,0.6666666666666666
"B-2173","triamcinolone hexacetonide",-5.1244,"CC(C)(C)CC(=O)OCC(=O)[C@@]12OC(C)(C)O[C@@H]1C[C@H]1[C@@H]3CCC4=CC(=O)C=C[C@]4(C)[C@@]3(F)[C@@H](O)C[C@@]12C","CC(C)(C)CC(=O)OCC(=O)[C@@]12OC(C)(C)O[C@@H]1C[C@H]1[C@@H]3CCC4=CC(=O)C=C[C@]4(C)[C@@]3(F)[C@@H](O)C[C@@]12C",111.3438540292531,"CC(C)(C)CC(=O)OCC(=O)[C@@]12OC(C)(C)O[C@@H]1C[C@H]1[C@@H]3CCC4=CC(=O)C=C[C@]4(C)[C@@]3(F)[C@@H](O)C[C@]21C",4.405900000000004,99.13000000000001,532.283631872,7,1,4,1,7,0,8,38,79,8,5,0,4,5,0,1,1,0,3,4,0.7666666666666667
"B-2175","1h-purine-1-acetic acid, 2,3,6,7-tetrahydro-3,7-",-1.3769,"Cn1cnc2c1c(=O)n(CC(=O)[O-])c(=O)n2C","CN1C(=O)N(CC(=O)[O-])C(=O)c2c1ncn2C",-100.79899514856169,"Cn1c(=O)n(CC(=O)[O-])c(=O)c2c1ncn2C",-1.8179999999999992,98.57000000000001,237.06292834791,8,0,2,0,6,3,8,17,26,0,2,1,0,1,1,0,1,0,0,0,0.3333333333333333
"B-2177","2-pyrrolidinecarboxamide, 5-oxo-n-phenyl-",-1.3278,"O=C1CCC(C(=O)Nc2ccccc2)N1","O=C1CCC(C(=O)Nc2ccccc2)N1",24.72177169714547,"O=C1CCC(C(=O)Nc2ccccc2)N1",0.9037,58.2,204.089877624,4,2,2,2,2,2,4,15,27,1,2,1,1,1,0,1,1,1,0,0,0.2727272727272727
"B-2178","phenol, 4-(phenylthio)-",-2.7745,"Oc1ccc(Sc2ccccc2)cc1","Oc1ccc(Sc2ccccc2)cc1",33.74526197169313,"Oc1ccc(Sc2ccccc2)cc1",3.543400000000002,20.23,202.04523594,1,1,2,1,2,0,2,14,24,0,2,2,0,0,0,0,0,2,0,0,0
"B-2179","ethane, 1,1'-[oxybis(methyleneoxy)]bis-",-0.1277,"CCOCOCOCC","CCOCOCOCC",-40.73899664755808,"CCOCOCOCC",0.991,27.69,134.094294308,3,0,6,0,3,0,3,9,23,0,0,0,0,0,0,0,0,0,0,0,1
"B-2180","naphtho[1,2-c]furan-1(3h)-one",-3.3062,"O=C1OCc2ccc3ccccc3c21","O=C1OCc2ccc3ccccc3c21",26.671470224334875,"O=C1OCc2ccc3ccccc3c12",2.510200000000001,26.3,184.052429496,2,0,0,0,2,0,2,14,22,0,3,2,0,1,0,0,1,2,0,0,0.08333333333333333
"B-2181","glycine, n-(2-furanylcarbonyl)-",-0.7272,"O=C([O-])CNC(=O)c1ccco1","O=C([O-])CNC(=O)c1ccco1",41.557088093689416,"O=C([O-])CNC(=O)c1ccco1",-1.2406999999999997,82.36999999999999,168.03023125191,5,1,3,1,4,1,5,12,18,0,1,1,0,0,1,0,0,0,0,0,0.14285714285714285
"B-2182","5-thiazolecarboxylic acid, 2-[[(4-aminophenyl)su",-2.8741,"Nc1ccc(S(=O)(=O)Nc2ncc(C(=O)[O-])s2)cc1","Nc1ccc(S(=O)(=O)Nc2ncc(C(=O)[O-])s2)cc1",-43.64041177192727,"Nc1ccc(S(=O)(=O)Nc2ncc(C(=O)[O-])s2)cc1",-0.11040000000000044,125.21000000000001,297.99617131591003,7,3,4,2,7,0,9,19,27,0,2,2,0,0,1,0,0,1,0,0,0
"B-2184","butanedioic acid, 2,2-diethyl-",-0.7962,"CCC(CC)(CC(=O)[O-])C(=O)[O-]","CCC(CC)(CC(=O)[O-])C(=O)[O-]",73.26814145578844,"CCC(CC)(CC(=O)[O-])C(=O)[O-]",-1.317299999999999,80.25999999999999,172.07465602382,4,0,5,0,4,0,4,12,24,0,0,0,0,0,0,0,0,0,0,0,0.75
"B-2185","benzenepropanoic acid, .alpha.,.beta.-dihydroxy-",-0.3063,"O=C([O-])C(O)C(O)c1ccccc1","O=C([O-])C(O)C(O)c1ccccc1",46.76633827339754,"O=C([O-])C(O)C(O)c1ccccc1",-1.1692000000000002,80.59,181.05063234791,4,2,3,2,4,0,4,13,22,2,1,1,0,0,0,0,0,1,0,0,0.2222222222222222
"B-2186","hydrocinnamic acid, .alpha.-ethylidene-",-2.5648,"CC=C(Cc1ccccc1)C(=O)[O-]","CC=C(Cc1ccccc1)C(=O)[O-]",1.838758387186111,"CC=C(Cc1ccccc1)C(=O)[O-]",0.9252999999999998,40.129999999999995,175.07645317191,2,0,3,0,2,0,2,13,24,0,1,1,0,0,0,0,0,1,0,0,0.18181818181818182
"B-2187","benzoic acid, 4-[(3-pyridinylcarbonyl)amino]-",-3.0832,"O=C([O-])c1ccc(NC(=O)c2cccnc2)cc1","O=C([O-])c1ccc(NC(=O)c2cccnc2)cc1",31.530435782252617,"O=C([O-])c1ccc(NC(=O)c2cccnc2)cc1",0.6974,82.11999999999999,241.06186572791,5,1,3,1,4,1,5,18,27,0,2,2,0,0,1,0,0,1,0,0,0
"B-2188","2-propanone, 1,1-diethoxy-",-0.2059,"CCOC(OCC)C(C)=O","CCOC(OCC)C(C)=O",23.417252643705943,"CCOC(OCC)C(=O)C",0.9744999999999999,35.53,146.094294308,3,0,5,0,3,0,3,10,24,0,0,0,0,0,0,0,0,0,0,0,0.8571428571428571
"B-2190","1,8,15,22-tetraazacyclooctacosane-2,9,16,23-tetr",-2.8126,"O=C1CCCCCNC(=O)CCCCCNC(=O)CCCCCNC(=O)CCCCCN1","O=C1CCCCCNC(=O)CCCCCNC(=O)CCCCCNC(=O)CCCCCN1",-24.894837250097435,"O=C1CCCCCNC(=O)CCCCCNC(=O)CCCCCNC(=O)CCCCCN1",2.7064000000000012,116.4,452.33625588800004,8,4,0,4,4,4,8,32,76,0,1,0,1,1,0,1,1,0,0,0,0.8333333333333334
"B-2192","endrocide (endox) (coumatetralyl)",-4.8638,"O=c1c(C2CCCc3ccccc32)c([O-])oc2ccccc12","O=C1C(C2CCCc3ccccc32)=C([O-])Oc2ccccc21",44.459549213927055,"O=c1c(C2CCCc3ccccc23)c([O-])oc2ccccc12",2.9537000000000013,49.36,291.10266791991006,3,0,1,0,3,0,3,22,37,1,4,2,0,2,0,0,1,2,0,1,0.21052631578947367
"B-2193","ethanol, 2-mercapto-, 1-acetate",-1.5,"CC(=O)OCCS","CC(=O)OCCS",-7.0592144710453155,"CC(=O)OCCS",0.4793,26.3,120.024500496,2,0,2,1,3,0,3,7,15,0,0,0,0,0,0,0,0,0,0,0,0.75
"B-2195","thioperoxydiphosphoric acid, tetramethyl ester",-4.3981,"COP(=S)(OC)SSP(=S)(OC)OC","COP(=S)(OC)SSP(=S)(OC)OC",-103.96585070234049,"COP(=S)(OC)SSP(=S)(OC)OC",3.402400000000002,36.92,313.909366124,4,0,7,0,8,0,10,14,26,0,0,0,0,0,0,0,0,0,0,0,1
"B-2197","propanoic acid, 3-phosphono-",0.5007,"O=C([O-])CCP(=O)([O-])[O-]","O=C([O-])CCP(=O)([O-])[O-]",105.9061447545159,"O=C([O-])CCP(=O)([O-])[O-]",-2.9598999999999993,103.32,150.98128059773,5,0,3,0,5,0,6,9,13,0,0,0,0,0,0,0,0,0,0,0,0.6666666666666666
"B-2200","ethanamine, 2,2'-thiobis[n,n-diethyl-",-2.3663,"CC[NH+](CC)CCSCC[NH+](CC)CC","CC[NH+](CC)CCSCC[NH+](CC)CC",68.6131332533663,"CC[NH+](CC)CCSCC[NH+](CC)CC",-0.4309999999999965,8.88,234.21187280018,2,2,10,2,1,0,3,15,45,0,0,0,0,0,0,0,0,0,0,0,1
"B-2202","5-oxo-3-phenyl-hexanoic acid",-1.4463,"CC(=O)CC(CC(=O)[O-])c1ccccc1","CC(=O)CC(CC(=O)[O-])c1ccccc1",7.615875363776452,"CC(=O)CC(CC(=O)[O-])c1ccccc1",0.8892999999999998,57.2,205.08701785591,3,0,5,0,3,0,3,15,28,1,1,1,0,0,0,0,0,1,0,0,0.3333333333333333
"B-2203","benzenamine, n-ethyl-n,2,4,6-tetranitro-",-3.7007,"CCN(c1c([N+](=O)[O-])cc([N+](=O)[O-])cc1[N+](=O)[O-])[N+](=O)[O-]","CCN(c1c([N+](=O)[O-])cc([N+](=O)[O-])cc1[N+](=O)[O-])[N+](=O)[O-]",36.646308598895224,"CCN(c1c([N+](=O)[O-])cc([N+](=O)[O-])cc1[N+](=O)[O-])[N+](=O)[O-]",1.4291999999999998,175.79999999999998,301.029462184,13,0,6,0,8,0,13,21,28,0,1,1,0,0,0,0,0,1,0,0,0.25
"B-2204","benzenamine, 4,4'-(1,2-ethynediyl)bis-",-2.4326,"Nc1ccc(C#Cc2ccc(N)cc2)cc1","Nc1ccc(C#Cc2ccc(N)cc2)cc1",25.77077999927463,"Nc1ccc(C#Cc2ccc(N)cc2)cc1",2.2508,52.04,208.100048384,2,4,0,2,2,0,2,16,28,0,2,2,0,0,0,0,0,2,0,0,0
"B-2205","benzoic acid, 2-(2-hydroxybenzoyl)-",-2.3428,"O=C([O-])c1ccccc1C(=O)c1ccccc1O","O=C([O-])c1ccccc1C(=O)c1ccccc1O",35.51998478510539,"O=C([O-])c1ccccc1C(=O)c1ccccc1O",0.9866999999999999,77.42999999999999,241.05063234791,4,1,3,1,4,0,4,18,27,0,2,2,0,0,0,0,0,2,0,0,0
"B-2206","phthalic acid, bis(2,2,2-trinitroethyl) ester",-3.5782,"O=C(OCC([N+](=O)[O-])([N+](=O)[O-])[N+](=O)[O-])c1ccccc1C(=O)OCC([N+](=O)[O-])([N+](=O)[O-])[N+](=O)[O-]","O=C(OCC([N+](=O)[O-])([N+](=O)[O-])[N+](=O)[O-])c1ccccc1C(=O)OCC([N+](=O)[O-])([N+](=O)[O-])[N+](=O)[O-]",-224.89633208690913,"O=C(OCC([N+](=O)[O-])([N+](=O)[O-])[N+](=O)[O-])c1ccccc1C(=O)OCC([N+](=O)[O-])([N+](=O)[O-])[N+](=O)[O-]",-1.0319999999999991,311.43999999999994,491.9996781759999,22,0,12,0,16,0,22,34,42,0,1,1,0,0,0,0,0,1,0,0,0.3333333333333333
"B-2209","1,3-dioxolane, 2-(2-methylpropyl)-",-0.3695,"CC(C)CC1OCCO1","CC(C)CC1OCCO1",5.151178566854866,"CC(C)CC1OCCO1",1.4054,18.46,130.099379688,2,0,2,0,2,0,2,9,23,0,1,0,1,1,0,1,1,0,0,0,1
"B-2210","2(1h)-azecinone, octahydro-",-1.0737,"O=C1CCCCCCCCN1","O=C1CCCCCCCCN1",2.5192667472878068,"O=C1CCCCCCCCN1",1.8469,29.1,155.131014164,2,1,0,1,1,1,2,11,28,0,1,0,1,1,0,1,1,0,0,0,0.8888888888888888
"B-2214","propanoic acid, 2,3-dimercapto-",-0.2374,"O=C([O-])C(S)CS","O=C([O-])C(S)CS",24.518353490953714,"O=C([O-])C(S)CS",-1.0355,40.129999999999995,136.97364497991,2,0,2,2,4,0,4,7,12,1,0,0,0,0,0,0,0,0,0,0,0.6666666666666666
"B-2215","nifuroxime",-2.1934,"O=[N+]([O-])c1ccc(C=NO)o1","O=[N+]([O-])c1ccc(C=NO)o1",49.01529352252413,"O=[N+]([O-])c1ccc(C=NO)o1",0.9959,88.87,156.017106608,6,1,2,1,5,0,6,11,15,0,1,1,0,0,1,0,0,0,0,0,0
"B-2216","2h-azepin-2-one, 1-benzoylhexahydro-",-2.1667,"O=C1CCCCCN1C(=O)c1ccccc1","O=C1CCCCCN1C(=O)c1ccccc1",-0.0951623446678358,"O=C1CCCCCN1C(=O)c1ccccc1",2.2294,37.38,217.11027872,3,0,1,0,2,2,3,16,31,0,2,1,1,1,0,1,1,1,0,0,0.38461538461538464
"B-2217","c.i. disperse orange 13",-6.0092,"O=C1C=CC(=NNc2ccc(N=Nc3ccccc3)c3ccccc23)C=C1","O=C1C=CC(=NNc2ccc(N=Nc3ccccc3)c3ccccc23)C=C1",88.11246924363758,"O=C1C=CC(=NNc2ccc(N=Nc3ccccc3)c3ccccc23)C=C1",5.718200000000003,66.18,352.132411132,5,1,4,1,5,0,5,27,43,0,4,3,0,1,0,0,0,3,0,1,0
"B-2218","2-bornanecarboxylic acid, 2-amino-",-1.5961,"CC1(C)C2CCC1(C)C([NH3+])(C(=O)[O-])C2","CC1(C)C2CCC1(C)C([NH3+])(C(=O)[O-])C2",-19.32250163959506,"CC1(C)C2CCC1(C)C([NH3+])(C(=O)[O-])C2",-0.43679999999999897,67.77,197.141578848,3,3,1,1,2,0,3,14,33,3,2,0,2,2,0,0,0,0,2,2,0.9090909090909091
"B-2220","benzenesulfonamide, 3-amino-4-methyl-",-1.9169,"Cc1ccc(S(N)(=O)=O)cc1N","Cc1ccc(S(N)(=O)=O)cc1N",7.3870240700596135,"Cc1ccc(S(=O)(=O)N)cc1N",0.2246200000000002,86.18,186.04629856,4,4,1,2,3,0,5,12,22,0,1,1,0,0,0,0,0,1,0,0,0.14285714285714285
"B-2221","lactamide, n-octyl-",-2.2827,"CCCCCCCCNC(=O)C(C)O","CCCCCCCCNC(=O)C(C)O",9.91624042862177,"CCCCCCCCNC(=O)C(C)O",1.8439,49.33,201.172878976,3,2,8,2,2,1,3,14,37,1,0,0,0,0,0,0,0,0,0,0,0.9090909090909091
"B-2222","lactamide, n-decyl-",-3.3605,"CCCCCCCCCCNC(=O)C(C)O","CCCCCCCCCCNC(=O)C(C)O",9.614814329804172,"CCCCCCCCCCNC(=O)C(C)O",2.6241000000000008,49.33,229.204179104,3,2,10,2,2,1,3,16,43,1,0,0,0,0,0,0,0,0,0,0,0.9230769230769231
"B-2223","propanoic acid, 2-hydroxy-, 1-methyl-2-oxo-2-(2-",-0.6826,"C=CCOC(=O)C(C)OC(=O)C(C)O","C=CCOC(=O)C(C)OC(=O)C(C)O",9.84249059117373,"C=CCOC(=O)C(C)OC(=O)C(C)O",0.02810000000000007,72.83,202.084123548,5,1,5,1,5,0,5,14,28,2,0,0,0,0,0,0,0,0,0,0,0.5555555555555556
"B-2224","d-glucitol, 1-deoxy-1-(methylamino)-",0.4084,"C[NH2+]CC(O)C(O)C(O)C(O)CO","C[NH2+]CC(O)C(O)C(O)C(O)CO",4.215426847203775,"C[NH2+]CC(O)C(O)C(O)C(O)CO",-4.384499999999996,117.76000000000002,196.11794909609,6,7,6,6,5,0,6,13,31,4,0,0,0,0,0,0,0,0,0,0,1
"B-2225","propanoic acid, 2-(acetyloxy)-, methyl ester",-0.2617,"COC(=O)C(C)OC(C)=O","COC(=O)C(C)OC(C)=O",-2.7079541825860947,"COC(=O)C(C)OC(=O)C",0.11099999999999999,52.6,146.0579088,4,0,2,0,4,0,4,10,20,1,0,0,0,0,0,0,0,0,0,0,0.6666666666666666
"B-2226","glycine, n,n-bis(2-cyanoethyl)-",0.4578,"N#CCC[NH+](CCC#N)CC(=O)[O-]","N#CCC[NH+](CCC#N)CC(=O)[O-]",-48.17094279223983,"N#CCC[NH+](CCC#N)CC(=O)[O-]",-2.5514399999999977,92.15,181.085126592,5,1,6,1,4,0,5,13,24,0,0,0,0,0,0,0,0,0,0,0,0.625
"B-2227","5-quinoxalinamine, 6,7-dimethoxy-",-1.7102,"COc1cc2nccnc2c(N)c1OC","COc1cc2nccnc2c(N)c1OC",108.9382932323679,"COc1cc2nccnc2c(N)c1OC",1.2291999999999998,70.26,205.085126592,5,2,2,1,5,0,5,15,26,0,2,2,0,0,1,0,0,1,0,0,0.2
"B-2228","urea, 1-methyl-1-p-tolyl-",-0.423,"Cc1ccc(N(C)C(N)=O)cc1","Cc1ccc(N(C)C(N)=O)cc1",7.195857718517047,"Cc1ccc(N(C)C(=O)N)cc1",1.50992,46.33,164.094963004,3,2,1,1,1,2,3,12,24,0,1,1,0,0,0,0,0,1,0,0,0.2222222222222222
"B-2229","2,4-dimethyl-1-pentanol",-1.6007,"CC(C)CC(C)CO","CC(C)CC(C)CO",5.767228539258662,"CC(C)CC(C)CO",1.6609,20.23,116.120115132,1,1,3,1,1,0,1,8,24,1,0,0,0,0,0,0,0,0,0,0,1
"B-2230","benzamide, 4-(aminosulfonyl)-",-2.3015,"NC(=O)c1ccc(S(N)(=O)=O)cc1","NC(=O)c1ccc(S(N)(=O)=O)cc1",18.08253290397548,"NC(=O)c1ccc(S(=O)(=O)N)cc1",-0.5670999999999997,103.25,200.025563116,5,4,2,2,3,1,6,13,21,0,1,1,0,0,0,0,0,1,0,0,0
"B-2231","2,4(1h,3h)-pyrimidinedione, 5-methyl-1-(phenylme",-2.2558,"Cc1cn(Cc2ccccc2)c(=O)[nH]c1=O","CC1=CN(Cc2ccccc2)C(=O)NC1=O",-45.2890862082063,"Cc1cn(Cc2ccccc2)c(=O)[nH]c1=O",1.6421999999999999,49.410000000000004,216.089877624,4,1,2,1,2,3,4,16,28,0,2,1,0,1,0,0,1,1,0,0,0.16666666666666666
"B-2232","1h-imidazole-4-sulfonic acid, 5-methyl-",0.188,"Cc1[nH]cnc1S(=O)(=O)[O-]","Cc1[nH]cnc1S(=O)(=O)[O-]",101.18686472457725,"Cc1[nH]cnc1S(=O)(=O)[O-]",-0.37778,85.88,161.00263659991,5,1,1,1,4,0,6,10,15,0,1,1,0,0,1,0,0,0,0,0,0.25
"B-2233","2,3-quinoxalinedione, 1,4-dihydro-6-methyl-",-3.0418,"Cc1ccc2[nH]c(=O)c(=O)[nH]c2c1","Cc1ccc2c(c1)NC(=O)C(=O)N2",63.53735514313242,"Cc1ccc2c(c1)[nH]c(=O)c(=O)[nH]2",0.8856199999999999,58.2,176.058577496,4,2,0,2,2,2,4,13,21,0,2,1,0,1,0,0,1,1,0,0,0.1111111111111111
"B-2235","9-acridinol, 9,10-dihydro-10-methyl-9-phenyl-",-3.9031,"CN1c2ccccc2C(O)(c2ccccc2)c2ccccc21","CN1c2ccccc2C(O)(c2ccccc2)c2ccccc21",48.49722736722273,"CN1c2ccccc2C(O)(c2ccccc2)c2ccccc12",4.052100000000002,23.47,287.131014164,2,1,1,1,2,0,2,22,39,0,4,3,0,1,0,0,1,3,0,0,0.1
"B-2236","2-cyclohexene-1,2-dicarboxylic acid, 1-methyl-",-1.9642,"CC1(C(=O)[O-])CCCC=C1C(=O)[O-]","CC1(C(=O)[O-])CCCC=C1C(=O)[O-]",102.61825285410303,"CC1(C(=O)[O-])CCCC=C1C(=O)[O-]",-1.397199999999999,80.25999999999999,182.05900595982,4,0,2,0,4,0,4,13,23,1,1,0,0,1,0,0,0,0,0,1,0.5555555555555556
"B-2237","dl-aspartic acid, n,n-bis(2-cyanoethyl)-",-1.5337,"N#CCC[NH+](CCC#N)C(CC(=O)[O-])C(=O)[O-]","N#CCC[NH+](CCC#N)C(CC(=O)[O-])C(=O)[O-]",-95.44729257202839,"N#CCC[NH+](CCC#N)C(CC(=O)[O-])C(=O)[O-]",-4.042839999999997,132.28,238.08332944391,7,1,8,1,6,0,7,17,29,1,0,0,0,0,0,0,0,0,0,0,0.6
"B-2238","1,2-benzenedicarboxamide, n,n,n',n'-tetramethyl-",0.5083,"CN(C)C(=O)c1ccccc1C(=O)N(C)C","CN(C)C(=O)c1ccccc1C(=O)N(C)C",-18.379306420104992,"CN(C)C(=O)c1ccccc1C(=O)N(C)C",1.0902,40.620000000000005,220.121177752,4,0,2,0,2,2,4,16,32,0,1,1,0,0,0,0,0,1,0,0,0.3333333333333333
"B-2239","acetic acid, [2-methoxy-4-(2-propenyl)phenoxy]-",-2.2786,"C=CCc1ccc(OCC(=O)[O-])c(OC)c1","C=CCc1ccc(OCC(=O)[O-])c(OC)c1",82.50318943757587,"C=CCc1ccc(OCC(=O)[O-])c(OC)c1",0.5523999999999996,58.59,221.08193247591,4,0,6,0,4,0,4,16,29,0,1,1,0,0,0,0,0,1,0,0,0.25