"ID","Name","Solubility","SMILES Canonical","Smiles (Optimized Geometry)","Energy","Smiles","SlogP","TPSA","ExactMW","NumLipinskiHBA","NumLipinskiHBD","NumRotatableBonds","NumHBD","NumHBA","NumAmideBonds","NumHeteroAtoms","NumHeavyAtoms","NumAtoms","NumStereocenters","NumRings","NumAromaticRings","NumSaturatedRings","NumAliphaticRings","NumAromaticHeterocycles","NumSaturatedHeterocycles","NumAliphaticHeterocycles","NumAromaticCarbocycles","NumSaturatedCarbocycles","NumAliphaticCarbocycles","FractionCSP3"
"A-4520","3-(dimethylamino)propan-1-ol",0.9864676175,"C[NH+](C)CCCO","C[NH+](C)CCCO",-5.854717345824888,"C[NH+](C)CCCO",-1.4866999999999992,24.67,104.10699048808999,2,2,3,2,1,0,2,7,21,0,0,0,0,0,0,0,0,0,0,0,1
"A-4522","4-hydroxybenzenesulfonic acid",0.7590091939,"O=S(=O)([O-])c1ccc(O)cc1","O=S(=O)([O-])c1ccc(O)cc1",15.06276329202409,"O=S(=O)([O-])c1ccc(O)cc1",0.29630000000000023,77.43,172.99140321991,4,1,1,1,4,0,5,11,16,0,1,1,0,0,0,0,0,1,0,0,0
"A-4523","4-hydroxybutyl prop-2-enoate",0.8411251015,"C=CC(=O)OCCCCO","C=CC(=O)OCCCCO",-11.220652209296144,"C=CC(=O)OCCCCO",0.4880999999999999,46.53,144.078644244,3,1,5,1,3,0,3,10,22,0,0,0,0,0,0,0,0,0,0,0,0.5714285714285714
"A-4531","cyclohexanamine",1.0035890328,"[NH3+]C1CCCCC1","[NH3+]C1CCCCC1",9.223756330656084,"[NH3+]C1CCCCC1",0.5609999999999993,27.64,100.11207586808999,1,3,0,1,0,0,1,7,21,0,1,0,1,1,0,0,0,0,1,1,1
"A-4536","methyl hydroxymethoxyacetate",0.9204425284,"COC(=O)COCO","COC(=O)COCO",9.217699059065705,"COC(=O)COCO",-0.8742000000000003,55.760000000000005,120.04225873600001,4,1,3,1,4,0,4,8,16,0,0,0,0,0,0,0,0,0,0,0,0.75
"A-4538","oxan-2-one",0.9994921725,"O=C1CCCCO1","O=C1CCCCO1",-0.4875047342906327,"O=C1CCCCO1",0.7135,26.3,100.052429496,2,0,0,0,2,0,2,7,15,0,1,0,1,1,0,1,1,0,0,0,0.8
"A-4539","pentane-1,2-diol",0.9823448956,"CCCC(O)CO","CCCC(O)CO",9.812927487600723,"CCCC(O)CO",0.13970000000000005,40.46,104.083729624,2,2,3,2,2,0,2,7,19,1,0,0,0,0,0,0,0,0,0,0,1
"A-4540","pentane-1,5-diol",0.9823448956,"OCCCCCO","OCCCCCO",3.005464565688639,"OCCCCCO",0.14130000000000004,40.46,104.083729624,2,2,4,2,2,0,2,7,19,0,0,0,0,0,0,0,0,0,0,0,1
"A-4551","1,2-oxathiolane 2,2-dioxide",-0.0868756938,"O=S1(=O)CCCO1","O=S1(=O)CCCO1",-23.39710094905165,"O=S1(=O)CCCO1",-0.26349999999999985,43.370000000000005,122.003765052,3,0,0,0,3,0,4,7,13,0,1,0,1,1,0,1,1,0,0,0,1
"A-4557","3-aminobenzenesulfonic acid",-1.2051065795,"Nc1cccc(S(=O)(=O)[O-])c1","Nc1cccc(S(=O)(=O)[O-])c1",11.780590696711922,"Nc1cccc(S(=O)(=O)[O-])c1",0.1729000000000001,83.22,172.00738763191,4,2,1,1,4,0,5,11,17,0,1,1,0,0,0,0,0,1,0,0,0
"A-4560","2-methoxy-2-methylbutane",-0.9795636765,"CCC(C)(C)OC","CCC(C)(C)OC",9.242033919392203,"CCC(C)(C)OC",1.8214000000000001,9.23,102.104465068,1,0,2,0,1,0,1,7,21,0,0,0,0,0,0,0,0,0,0,0,1
"A-4567","1-hydroxy-1-phenylacetone",-1.1766034244,"CC(=O)C(O)c1ccccc1","CC(=O)C(O)c1ccccc1",35.78174796429626,"CC(=O)C(O)c1ccccc1",1.309,37.3,150.06807956,2,1,2,1,2,0,2,11,21,1,1,1,0,0,0,0,0,1,0,0,0.2222222222222222
"A-4570","trimethoxymethane",-1.0258013338,"COC(OC)OC","COC(OC)OC",-50.588772819308495,"COC(OC)OC",0.20920000000000005,27.69,106.06299418,3,0,3,0,3,0,3,7,17,0,0,0,0,0,0,0,0,0,0,0,1
"A-4576","2-phenyl-1H-imidazole",-1.8893830404,"c1ccc(-c2ncc[nH]2)cc1","c1ccc(-c2ncc[nH]2)cc1",16.3619543299651,"c1ccc(c2ncc[nH]2)cc1",2.0766999999999998,28.68,144.068748256,2,1,1,1,1,0,2,11,19,0,2,2,0,0,1,0,0,1,0,0,0
"A-4579","2-[(2-nitrophenyl)amino]ethan-1-ol",-1.9933265855,"O=[N+]([O-])c1ccccc1NCCO","O=[N+]([O-])c1ccccc1NCCO",44.64667711123904,"O=[N+]([O-])c1ccccc1NCCO",0.9989999999999997,75.4,182.06914218,5,2,4,2,4,0,5,13,23,0,1,1,0,0,0,0,0,1,0,0,0.25
"A-4580","5-methyl-1,2-oxazole-4-carboxylate",-1.0553611102,"Cc1oncc1C(=O)[O-]","Cc1oncc1C(=O)[O-]",-17.27728261792686,"Cc1oncc1C(=O)[O-]",-0.6534800000000001,66.16,126.01966656791001,4,0,1,0,4,0,4,9,13,0,1,1,0,0,1,0,0,0,0,0,0.2
"A-4582","2,5,6-trimethylcyclohex-2-en-1-one",-1.8852669619,"CC1=CCC(C)C(C)C1=O","CC1=CCC(C)C(C)C1=O",10.519906561276017,"CC1=CCC(C)C(C)C1=O",2.1776999999999997,17.07,138.104465068,1,0,0,0,1,0,1,10,24,2,1,0,0,1,0,0,0,0,0,1,0.6666666666666666
"A-4587","3-[(2-ethylhexyl)oxy]propane-1,2-diol",-2.0550171187,"CCCCC(CC)COCC(O)CO","CCCCC(CC)COCC(O)CO",21.16647323968418,"CCCCC(CC)COCC(O)CO",1.5725999999999998,49.69,204.172544628,3,2,9,2,3,0,3,14,38,2,0,0,0,0,0,0,0,0,0,0,1
"A-4589","N-(4-amino-3-methoxy-9,10-dioxo-9,10-dihydroanthracen-1-yl)benzenesulfonamide",-2.3558504459,"COc1cc(NS(=O)(=O)c2ccccc2)c2c(c1N)C(=O)c1ccccc1C2=O","COc1cc(NS(=O)(=O)c2ccccc2)c2c(c1N)C(=O)c1ccccc1C2=O",38.89384077075346,"COc1cc(NS(=O)(=O)c2ccccc2)c2c(c1N)C(=O)c1ccccc1C2=O",2.853600000000001,115.56,408.07799261199995,7,3,4,2,6,0,8,29,45,0,4,3,0,1,0,0,0,3,0,1,0.047619047619047616
"A-4591","3-(oxiran-2-ylmethoxy)-N,N-bis(oxiran-2-ylmethyl)aniline",-2.1925611892,"c1cc(OCC2CO2)cc(N(CC2CO2)CC2CO2)c1","c1cc(OCC2CO2)cc(N(CC2CO2)CC2CO2)c1",47.474024712595494,"c1cc(OCC2CO2)cc(N(CC2CO2)CC2CO2)c1",1.0681999999999998,50.06,277.131408088,5,0,8,0,5,0,5,20,39,3,4,1,3,3,0,3,3,1,0,0,0.6
"A-4593","2,2,6,6-tetramethyl-N-{6-[(2,2,6,6-tetramethylpiperidin-4-yl)amino]hexyl}piperidin-4-amine",-2.350745656,"CC1(C)CC([NH2+]CCCCCC[NH2+]C2CC(C)(C)[NH2+]C(C)(C)C2)CC(C)(C)[NH2+]1","CC1(C)CC([NH2+]CCCCCC[NH2+]C2CC(C)(C)[NH2+]C(C)(C)C2)CC(C)(C)[NH2+]1",205.0950593284849,"CC1(C)CC([NH2+]CCCCCC[NH2+]C2CC(C)(C)[NH2+]C(C)(C)C2)CC(C)(C)[NH2+]1",0.23960000000000592,66.44,398.43265340835995,4,8,9,4,0,0,4,28,82,0,2,0,2,2,0,2,2,0,0,0,1
"A-4597","2,4,7,9-tetramethyldec-5-yne-4,7-diol",-2.1243507639,"CC(C)CC(C)(O)C#CC(C)(O)CC(C)C","CC(C)CC(C)(O)C#CC(C)(O)CC(C)C",16.087960894082137,"CC(C)CC(C)(O)C#CC(C)(O)CC(C)C",2.5840000000000005,40.46,226.193280072,2,2,4,2,2,0,2,16,42,2,0,0,0,0,0,0,0,0,0,0,0.8571428571428571
"A-4598","butyl prop-2-enoate",-1.8773408513,"C=CC(=O)OCCCC","C=CC(=O)OCCCC",-8.225225126304004,"C=CC(=O)OCCCC",1.5156999999999998,26.3,128.083729624,2,0,4,0,2,0,2,9,21,0,0,0,0,0,0,0,0,0,0,0,0.5714285714285714
"A-4600","4-(butoxymethyl)-2-methoxyphenol",-2.0948968063,"CCCCOCc1ccc(O)c(OC)c1","CCCCOCc1ccc(O)c(OC)c1",20.593126511543826,"CCCCOCc1ccc(O)c(OC)c1",2.717500000000001,38.69,210.125594436,3,1,6,1,3,0,3,15,33,0,1,1,0,0,0,0,0,1,0,0,0.5
"A-4604","2-(2-amino-1,3-thiazol-4-yl)acetic acid",-1.9816731181,"Nc1nc(CC(=O)[O-])cs1","Nc1nc(CC(=O)[O-])cs1",25.27067998375924,"Nc1nc(CC(=O)[O-])cs1",-0.9823000000000002,79.03999999999999,157.00772197991,4,2,2,1,5,0,5,10,15,0,1,1,0,0,1,0,0,0,0,0,0.2
"A-4605","1'-(phenylmethyl)-[1,4'-bipiperidine]-4'-carbonitrile",-2.2459922106,"N#CC1(N2CCCCC2)CC[NH+](Cc2ccccc2)CC1","N#CC1(N2CCCCC2)CC[NH+](Cc2ccccc2)CC1",23.293170425820517,"N#CC1(N2CCCCC2)CC[NH+](Cc2ccccc2)CC1",1.61358,31.470000000000002,284.21212425208995,3,1,3,1,2,0,3,21,47,0,3,1,2,2,0,2,2,1,0,0,0.6111111111111112
"A-4606","3-(diethylamino)phenol",-2.0112787971,"CCN(CC)c1cccc(O)c1","CCN(CC)c1cccc(O)c1",26.361046167532972,"CCN(CC)c1cccc(O)c1",2.2384000000000004,23.47,165.1153641,2,1,3,1,2,0,2,12,27,0,1,1,0,0,0,0,0,1,0,0,0.4
"A-4607","2,3-bis(nitrooxy)propyl nitrate",-2.1520684654,"O=[N+]([O-])OCC(CO[N+](=O)[O-])O[N+](=O)[O-]","O=[N+]([O-])OCC(CO[N+](=O)[O-])O[N+](=O)[O-]",-60.94988846104749,"O=[N+]([O-])OCC(CO[N+](=O)[O-])O[N+](=O)[O-]",-1.0200999999999996,157.11,227.00257874000002,12,0,8,0,9,0,12,15,20,0,0,0,0,0,0,0,0,0,0,0,1
"A-4610","methyl 2-[(1E)-cyclopentylidene]acetate",-1.9425722692,"COC(=O)C=C1CCCC1","COC(=O)C=C1CCCC1",10.647908175883602,"COC(=O)C=C1CCCC1",1.6598,26.3,140.083729624,2,0,1,0,2,0,2,10,22,0,1,0,1,1,0,0,0,0,1,1,0.625
"A-4613","diphenyl methylphosphonate",-2.2017086736,"CP(=O)(Oc1ccccc1)Oc1ccccc1","CP(=O)(Oc1ccccc1)Oc1ccccc1",29.05460474422724,"CP(=O)(Oc1ccccc1)Oc1ccccc1",3.9673000000000025,35.53,248.06023090600002,3,0,4,0,3,0,4,17,30,0,2,2,0,0,0,0,0,2,0,0,0.07692307692307693
"A-4623","[(2R,3R,4S,5R,6R)-3,4,5,6-tetrakis(acetyloxy)oxan-2-yl]methyl acetate",-2.4153529113,"CC(=O)OCC1OC(OC(C)=O)C(OC(C)=O)C(OC(C)=O)C1OC(C)=O","CC(=O)OCC1OC(OC(C)=O)C(OC(C)=O)C(OC(C)=O)C1OC(C)=O",-28.382667709874248,"CC(=O)OCC1OC(OC(=O)C)C(OC(=O)C)C(OC(=O)C)C1OC(=O)C",-0.3673999999999986,140.73000000000002,390.11621152399994,11,0,6,0,11,0,11,27,49,5,1,0,1,1,0,1,1,0,0,0,0.6875
"A-4624","2,2-dimethyl-3-phenylpropan-1-ol",-2.0423138216,"CC(C)(CO)Cc1ccccc1","CC(C)(CO)Cc1ccccc1",17.839382417368622,"CC(C)(CO)Cc1ccccc1",2.2476000000000003,20.23,164.120115132,1,1,3,1,1,0,1,12,28,0,1,1,0,0,0,0,0,1,0,0,0.45454545454545453
"A-4625","2-phenyloxirane",-1.9065411213,"c1ccc(C2CO2)cc1","c1ccc(C2CO2)cc1",15.017850559782932,"c1ccc(C2CO2)cc1",1.7578999999999998,12.53,120.057514876,1,0,1,0,1,0,1,9,17,1,2,1,1,1,0,1,1,1,0,0,0.25
"A-4627","tert-butyl 2,2-dimethylpropaneperoxoate",-2.067961594,"CC(C)(C)OOC(=O)C(C)(C)C","CC(C)(C)OOC(=O)C(C)(C)C",24.279108972641094,"CC(C)(C)OOC(=O)C(C)(C)C",2.3058000000000005,35.53,174.125594436,3,0,1,0,3,0,3,12,30,0,0,0,0,0,0,0,0,0,0,0,0.8888888888888888
"A-4629","3-methyl-2-[(2E)-pent-2-en-1-yl]cyclopent-2-en-1-one",-2.0452383746,"CCC=CCC1=C(C)CCC1=O","CCC=CCC1=C(C)CCC1=O",6.333307703101908,"CCC=CCC1=C(C)CCC1=O",3.022100000000002,17.07,164.120115132,1,0,3,0,1,0,1,12,28,0,1,0,0,1,0,0,0,0,0,1,0.5454545454545454
"A-4631","2-(butan-2-yl)phenol",-2.0123777929,"CCC(C)c1ccccc1O","CCC(C)c1ccccc1O",19.396654559724304,"CCC(C)c1ccccc1O",2.9057000000000017,20.23,150.104465068,1,1,2,1,1,0,1,11,25,1,1,1,0,0,0,0,0,1,0,0,0.4
"A-4634","2,2'-(octylimino)diethanol",-2.1910376032,"CCCCCCCC[NH+](CCO)CCO","CCCCCCCC[NH+](CCO)CCO",16.967018549350428,"CCCCCCCC[NH+](CCO)CCO",0.21640000000000098,44.900000000000006,218.21145555609002,3,3,11,3,2,0,3,15,43,0,0,0,0,0,0,0,0,0,0,0,1
"A-4639","5-nitroisophthalic acid",-2.178419855,"O=C([O-])c1cc(C(=O)[O-])cc([N+](=O)[O-])c1","O=C([O-])c1cc(C(=O)[O-])cc([N+](=O)[O-])c1",80.71641069734538,"O=C([O-])c1cc(C(=O)[O-])cc([N+](=O)[O-])c1",-1.6781999999999997,123.4,208.99713397582002,7,0,3,0,6,0,7,15,18,0,1,1,0,0,0,0,0,1,0,0,0
"A-4642","ethyl [(4-methylphenyl)sulfonyl]carbamate",-2.2430987475,"CCOC(=O)[N-]S(=O)(=O)c1ccc(C)cc1","CCOC(=O)[N-]S(=O)(=O)c1ccc(C)cc1",-4.203814728363433,"CCOC(=O)[N-]S(=O)(=O)c1ccc(C)cc1",2.21392,74.54,242.04925244391,5,0,3,0,4,1,6,16,28,0,1,1,0,0,0,0,0,1,0,0,0.3
"A-4645","(diethoxymethoxy)ethane",-2.040520296,"CCOC(OCC)OCC","CCOC(OCC)OCC",-53.92364560704724,"CCOC(OCC)OCC",1.3795,27.69,148.109944372,3,0,6,0,3,0,3,10,26,0,0,0,0,0,0,0,0,0,0,0,1
"A-4648","N,N-dimethylnonanamide",-2.1440495587,"CCCCCCCCC(=O)N(C)C","CCCCCCCCC(=O)N(C)C",-17.293015408723573,"CCCCCCCCC(=O)N(C)C",2.8252000000000015,20.310000000000002,185.177964356,2,0,7,0,1,1,2,13,36,0,0,0,0,0,0,0,0,0,0,0,0.9090909090909091
"A-4649","1-isocyanato-4-(4-isocyanato-3-methylphenyl)-2-methylbenzene",-2.308127519,"Cc1cc(-c2ccc(N=C=O)c(C)c2)ccc1N=C=O","Cc1cc(-c2ccc(N=C=O)c(C)c2)ccc1N=C=O",25.74361823237981,"Cc1cc(c2ccc(N=C=O)c(C)c2)ccc1N=C=O",3.9050400000000023,58.86,264.089877624,4,0,3,0,4,0,4,20,32,0,2,2,0,0,0,0,0,2,0,0,0.125
"A-4652","4-phenylbut-3-en-2-one",-2.050971343,"CC(=O)C=Cc1ccccc1","CC(=O)C=Cc1ccccc1",20.000919892038354,"CC(=O)C=Cc1ccccc1",2.2888,17.07,146.07316494,1,0,2,0,1,0,1,11,21,0,1,1,0,0,0,0,0,1,0,0,0.1
"A-4654","5-(4-hydroxyphenyl)imidazolidine-2,4-dione",-2.1731049195,"O=C1NC(=O)C(c2ccc(O)cc2)N1","O=C1NC(=O)C(c2ccc(O)cc2)N1",-3.9033774125988137,"O=C1NC(=O)C(c2ccc(O)cc2)N1",0.2726999999999999,78.43,192.053492116,5,3,1,3,3,3,5,14,22,1,2,1,1,1,0,1,1,1,0,0,0.1111111111111111
"A-4658","2-[(4-amino-2-nitrophenyl)amino]ethan-1-ol",-2.1910899756,"Nc1ccc(NCCO)c([N+](=O)[O-])c1","Nc1ccc(NCCO)c([N+](=O)[O-])c1",41.67496649011378,"Nc1ccc(NCCO)c([N+](=O)[O-])c1",0.5811999999999999,101.42,197.080041212,6,4,4,3,5,0,6,14,25,0,1,1,0,0,0,0,0,1,0,0,0.25
"A-4659","4-methyl-4-phenylpentan-2-ol",-2.1472867242,"CC(O)CC(C)(C)c1ccccc1","CC(O)CC(C)(C)c1ccccc1",22.139287147652297,"CC(O)CC(C)(C)c1ccccc1",2.735100000000001,20.23,178.135765196,1,1,3,1,1,0,1,13,31,1,1,1,0,0,0,0,0,1,0,0,0.5
"A-4661","naphthalen-1-ol",-2.0619739225,"Oc1cccc2ccccc12","Oc1cccc2ccccc12",27.39007449578371,"Oc1cccc2ccccc12",2.5454000000000008,20.23,144.057514876,1,1,0,1,1,0,1,11,19,0,2,2,0,0,0,0,0,2,0,0,0
"A-4664","N-acetyl-N-[2-(N-acetylacetamido)ethyl]acetamide",-2.2792257347,"CC(=O)N(CCN(C(C)=O)C(C)=O)C(C)=O","CC(=O)N(CCN(C(C)=O)C(C)=O)C(C)=O",-58.06368295036118,"CC(=O)N(CCN(C(=O)C)C(=O)C)C(=O)C",-0.22360000000000002,74.76,228.111006992,6,0,3,0,4,4,6,16,32,0,0,0,0,0,0,0,0,0,0,0,0.6
"A-4665","[9-methyl-6-(propan-2-yl)-1,4-dioxaspiro[4.5]decan-2-yl]methanol",-2.2793855347,"CC1CCC(C(C)C)C2(C1)OCC(CO)O2","CC1CCC(C(C)C)C2(C1)OCC(CO)O2",36.330521068624705,"CC1CCC(C(C)C)C2(C1)OCC(CO)O2",2.1826000000000003,38.69,228.172544628,3,1,2,1,3,0,3,16,40,4,2,0,2,2,0,1,1,0,1,1,1
"A-4667","ethyl 2-phenylacetate",-2.1362024863,"CCOC(=O)Cc1ccccc1","CCOC(=O)Cc1ccccc1",14.235024024758227,"CCOC(=O)Cc1ccccc1",1.7922,26.3,164.083729624,2,0,3,0,2,0,2,12,24,0,1,1,0,0,0,0,0,1,0,0,0.3
"A-4676","(3Z)-hex-3-en-1-yl acetate",-2.111500803,"CCC=CCCOC(C)=O","CCC=CCCOC(C)=O",-8.046558056460764,"CCC=CCCOC(=O)C",1.9058,26.3,142.099379688,2,0,4,0,2,0,2,10,24,0,0,0,0,0,0,0,0,0,0,0,0.625
"A-4678","1-butyl-6-hydroxy-4-methyl-2-oxo-1,2-dihydropyridine-3-carbonitrile",-2.2729907436,"CCCCn1c([O-])c(C#N)c(C)cc1=O","CCCCN1C(=O)C=C(C)C(C#N)=C1[O-]",13.319915509805647,"CCCCn1c(=O)cc(C)c(C#N)c1[O-]",0.67048,67.16,205.09825123591,4,0,3,0,3,1,4,15,28,0,1,0,0,1,0,0,1,0,0,0,0.45454545454545453
"A-4679","2-methoxy-4-propylphenol",-2.1792905928,"CCCc1ccc(O)c(OC)c1","CCCc1ccc(O)c(OC)c1",25.095283412604623,"CCCc1ccc(O)c(OC)c1",2.3533,29.46,166.099379688,2,1,3,1,2,0,2,12,26,0,1,1,0,0,0,0,0,1,0,0,0.4
"A-4683","1-octylpyrrolidin-2-one",-2.2577490108,"CCCCCCCCN1CCCC1=O","CCCCCCCCN1CCCC1=O",-19.420903831431303,"CCCCCCCCN1CCCC1=O",2.9693000000000014,20.310000000000002,197.177964356,2,0,7,0,1,1,2,14,37,0,1,0,1,1,0,1,1,0,0,0,0.9166666666666666
"A-4684","(E)-N-(5-methylheptan-3-ylidene)hydroxylamine",-2.1307281267,"CCC(CC(C)CC)=NO","CCC(CC(C)CC)=NO",7.679016366714929,"CCC(=NO)CC(C)CC",2.6628000000000007,32.59,143.131014164,2,1,4,1,2,0,2,10,27,1,0,0,0,0,0,0,0,0,0,0,0.875
"A-4689","3-(4-methoxyphenyl)-2-methylpropanal",-2.24666187,"COc1ccc(CC(C)C=O)cc1","COc1ccc(CC(C)C=O)cc1",18.868060635510375,"COc1ccc(CC(C)C=O)cc1",2.0727,26.3,178.099379688,2,0,4,0,2,0,2,13,27,1,1,1,0,0,0,0,0,1,0,0,0.36363636363636365
"A-4690","N-(2,4,4-trimethylpentan-2-yl)prop-2-enamide",-2.2588292445,"C=CC(=O)NC(C)(C)CC(C)(C)C","C=CC(=O)NC(C)(C)CC(C)(C)C",-0.9982428213024388,"C=CC(=O)NC(C)(C)CC(C)(C)C",2.503400000000001,29.1,183.162314292,2,1,3,1,1,1,2,13,34,0,0,0,0,0,0,0,0,0,0,0,0.7272727272727273
"A-4699","ethyl 3-methyl-3-phenyloxirane-2-carboxylate",-2.3143750058,"CCOC(=O)C1OC1(C)c1ccccc1","CCOC(=O)C1OC1(C)c1ccccc1",20.51455301419741,"CCOC(=O)C1OC1(C)c1ccccc1",1.8637,38.83,206.094294308,3,0,3,0,3,0,3,15,29,2,2,1,1,1,0,1,1,1,0,0,0.4166666666666667
"A-4707","2-tert-butylphenol",-2.1899589144,"CC(C)(C)c1ccccc1O","CC(C)(C)c1ccccc1O",20.66006684055612,"CC(C)(C)c1ccccc1O",2.6897000000000015,20.23,150.104465068,1,1,0,1,1,0,1,11,25,0,1,1,0,0,0,0,0,1,0,0,0.4
"A-4709","2,6-dimethyloct-7-en-2-ol",-2.2212072407,"C=CC(C)CCCC(C)(C)O","C=CC(C)CCCC(C)(C)O",4.837759650667609,"C=CC(C)CCCC(C)(C)O",2.749700000000001,20.23,156.15141526,1,1,5,1,1,0,1,11,31,1,0,0,0,0,0,0,0,0,0,0,0.8
"A-4711","3-(2H-1,3-benzodioxol-5-yl)-2-methylpropanal",-2.3134381403,"CC(C=O)Cc1ccc2c(c1)OCO2","CC(C=O)Cc1ccc2c(c1)OCO2",19.932014073506977,"CC(C=O)Cc1ccc2c(c1)OCO2",1.7928,35.53,192.078644244,3,0,3,0,3,0,3,14,26,1,2,1,0,1,0,0,1,1,0,0,0.36363636363636365
"A-4714","4-methyl-2-(2-methylprop-1-en-1-yl)oxane",-2.2244457918,"CC(C)=CC1CC(C)CCO1","CC(C)=CC1CC(C)CCO1",12.862578018694936,"CC(=CC1CC(C)CCO1)C",2.7677000000000014,9.23,154.135765196,1,0,1,0,1,0,1,11,29,2,1,0,1,1,0,1,1,0,0,0,0.8
"A-4715","2-ethylhexan-1-ol",-2.1604718659,"CCCCC(CC)CO","CCCCC(CC)CO",7.804081370628181,"CCCCC(CC)CO",2.1951000000000005,20.23,130.135765196,1,1,5,1,1,0,1,9,27,1,0,0,0,0,0,0,0,0,0,0,1
"A-4716","6-methyloct-5-en-2-one",-2.1925860364,"CCC(C)=CCCC(C)=O","CCC(C)=CCCC(C)=O",0.2913620504607728,"CCC(=CCCC(=O)C)C",2.711900000000001,17.07,140.120115132,1,0,4,0,1,0,1,10,26,0,0,0,0,0,0,0,0,0,0,0,0.6666666666666666
"A-4718","furan-2,5-dicarboxylic acid",-2.2396237358,"O=C([O-])c1ccc(C(=O)[O-])o1","O=C([O-])c1ccc(C(=O)[O-])o1",114.94396775633354,"O=C([O-])c1ccc(C(=O)[O-])o1",-1.9934000000000005,93.39999999999999,153.99132032382002,5,0,2,0,5,0,5,11,13,0,1,1,0,0,1,0,0,0,0,0,0
"A-4732","naphthalene-1,8-diamine",-2.3071228572,"Nc1cccc2cccc(N)c12","Nc1cccc2cccc(N)c12",31.06642209877602,"Nc1cccc2cccc(N)c12",2.0042,52.04,158.08439832,2,4,0,2,2,0,2,12,22,0,2,2,0,0,0,0,0,2,0,0,0
"A-4737","2-nitro-4-(trifluoromethyl)benzonitrile",-2.4707735629,"N#Cc1ccc(C(F)(F)F)cc1[N+](=O)[O-]","N#Cc1ccc(C(F)(F)F)cc1[N+](=O)[O-]",12.560149895476956,"N#Cc1ccc(C(F)(F)F)cc1[N+](=O)[O-]",2.4852800000000004,66.92999999999999,216.014661996,4,0,1,0,3,0,7,15,18,0,1,1,0,0,0,0,0,1,0,0,0.125
"A-4741","2-ethylhex-2-enal",-2.2559578736,"CCCC=C(C=O)CC","CCCC=C(C=O)CC",4.3030636305612004,"CCCC=C(C=O)CC",2.3218000000000005,17.07,126.104465068,1,0,4,0,1,0,1,9,23,0,0,0,0,0,0,0,0,0,0,0,0.625
"A-4742","2-ethylhexanal",-2.2628407967,"CCCCC(C=O)CC","CCCCC(C=O)CC",3.868169675178613,"CCCCC(C=O)CC",2.401700000000001,17.07,128.120115132,1,0,5,0,1,0,1,9,25,1,0,0,0,0,0,0,0,0,0,0,0.875
"A-4743","3,5,5-trimethylhexanoic acid",-2.3542209788,"CC(CC(=O)[O-])CC(C)(C)C","CC(CC(=O)[O-])CC(C)(C)C",8.158318970076838,"CC(CC(=O)[O-])CC(C)(C)C",1.1986999999999994,40.129999999999995,157.12340336391,2,0,3,0,2,0,2,11,28,1,0,0,0,0,0,0,0,0,0,0,0.8888888888888888
"A-4744","3-oxo-N-(2-oxo-2,3-dihydro-1H-1,3-benzodiazol-5-yl)butanamide",-2.522680786,"CC(=O)CC(=O)Nc1ccc2[nH]c(=O)[nH]c2c1","CC(=O)CC(=O)Nc1ccc2c(c1)NC(=O)N2",6.12079382690378,"CC(=O)CC(=O)Nc1ccc2c(c1)[nH]c(=O)[nH]2",1.5615999999999999,87.30000000000001,233.080041212,6,3,3,3,3,3,6,17,28,0,2,1,0,1,0,0,1,1,0,0,0.18181818181818182
"A-4746","5-amino-2,3-dihydro-1H-1,3-benzodiazol-2-one",-2.3347829023,"Nc1ccc2[nH]c(=O)[nH]c2c1","Nc1ccc2c(c1)NC(=O)N2",19.57916826106055,"Nc1ccc2c(c1)[nH]c(=O)[nH]2",1.2262,67.14999999999999,149.058911844,4,4,0,3,2,2,4,11,18,0,2,1,0,1,0,0,1,1,0,0,0
"A-4750","2-butyl-4,4,6-trimethyl-1,3-dioxane",-2.4532973596,"CCCCC1OC(C)CC(C)(C)O1","CCCCC1OC(C)CC(C)(C)O1",-10.446266545337565,"CCCCC1OC(C)CC(C)(C)O1",3.106700000000002,18.46,186.161979944,2,0,3,0,2,0,2,13,35,2,1,0,1,1,0,1,1,0,0,0,1
"A-4751","2-methyl-1-phenylpropan-1-one",-2.35661526,"CC(C)C(=O)c1ccccc1","CC(C)C(=O)c1ccccc1",21.96155096721228,"CC(C)C(=O)c1ccccc1",2.5253000000000005,17.07,148.088815004,1,0,2,0,1,0,1,11,23,0,1,1,0,0,0,0,0,1,0,0,0.3
"A-4754","3-amino-2-hydroxy-5-nitrobenzoic acid",-2.4907790333,"Nc1cc([N+](=O)[O-])cc(C(=O)[O-])c1[O-]","Nc1cc([N+](=O)[O-])cc(C(=O)[O-])c1[O-]",130.28047056398873,"Nc1cc([N+](=O)[O-])cc(C(=O)[O-])c1[O-]",-1.3859000000000004,132.35,196.01311838782001,7,2,2,1,6,0,7,14,18,0,1,1,0,0,0,0,0,1,0,0,0
"A-4757","4-amino-5-methoxy-N,2-dimethylbenzenesulfonamide",-2.5769433589,"CNS(=O)(=O)c1cc(OC)c(N)cc1C","CNS(=O)(=O)c1cc(OC)c(N)cc1C",1.1748314395724369,"CNS(=O)(=O)c1cc(OC)c(N)cc1C",0.49392,81.42,230.072513308,5,3,3,2,4,0,6,15,29,0,1,1,0,0,0,0,0,1,0,0,0.3333333333333333
"A-4758","4-tert-butylphenol",-2.3914008137,"CC(C)(C)c1ccc(O)cc1","CC(C)(C)c1ccc(O)cc1",19.998191824861344,"CC(C)(C)c1ccc(O)cc1",2.689700000000001,20.23,150.104465068,1,1,0,1,1,0,1,11,25,0,1,1,0,0,0,0,0,1,0,0,0.4
"A-4764","ethyl 2-methylbutanoate",-2.3364163689,"CCOC(=O)C(C)CC","CCOC(=O)C(C)CC",-6.316864241066864,"CCOC(=O)C(C)CC",1.5956000000000001,26.3,130.099379688,2,0,3,0,2,0,2,9,23,1,0,0,0,0,0,0,0,0,0,0,0.8571428571428571
"A-4767","4-tert-butylcyclohexan-1-one",-2.4173816076,"CC(C)(C)C1CCC(=O)CC1","CC(C)(C)C1CCC(=O)CC1",15.52926313670626,"CC(C)(C)C1CCC(=O)CC1",2.791800000000001,17.07,154.135765196,1,0,0,0,1,0,1,11,29,0,1,0,1,1,0,0,0,0,1,1,0.9
"A-4771","1,6-bis[2-(2-butoxyethoxy)ethyl] hexanedioate",-2.8821848864,"CCCCOCCOCCOC(=O)CCCCC(=O)OCCOCCOCCCC","CCCCOCCOCCOC(=O)CCCCC(=O)OCCOCCOCCCC",37.05940539271622,"CCCCOCCOCCOC(=O)CCCCC(=O)OCCOCCOCCCC",3.299800000000002,89.52000000000001,434.28796830399995,8,0,23,0,8,0,8,30,72,0,0,0,0,0,0,0,0,0,0,0,0.9090909090909091