"ID","Name","Solubility","SMILES Canonical","Smiles (Optimized Geometry)","Energy","Smiles","SlogP","TPSA","ExactMW","NumLipinskiHBA","NumLipinskiHBD","NumRotatableBonds","NumHBD","NumHBA","NumAmideBonds","NumHeteroAtoms","NumHeavyAtoms","NumAtoms","NumStereocenters","NumRings","NumAromaticRings","NumSaturatedRings","NumAliphaticRings","NumAromaticHeterocycles","NumSaturatedHeterocycles","NumAliphaticHeterocycles","NumAromaticCarbocycles","NumSaturatedCarbocycles","NumAliphaticCarbocycles","FractionCSP3"
"A-4775","1-methoxy-4-methylbenzene",-2.3395421013,"COc1ccc(C)cc1","COc1ccc(C)cc1",20.251164182238913,"COc1ccc(C)cc1",2.0036199999999997,9.23,122.07316494,1,0,1,0,1,0,1,9,19,0,1,1,0,0,0,0,0,1,0,0,0.25
"A-4776","N-[3-(morpholin-4-yl)propyl]naphthalen-1-amine",-2.702803349,"c1ccc2c(NCCC[NH+]3CCOCC3)cccc2c1","c1ccc2c(NCCC[NH+]3CCOCC3)cccc2c1",73.30312841626231,"c1ccc2c(NCCC[NH+]3CCOCC3)cccc2c1",1.5568999999999997,25.7,271.18048977609,3,2,5,2,2,0,3,20,43,0,3,2,1,1,0,1,1,2,0,0,0.4117647058823529
"A-4778","2-phenylphenol",-2.5067117536,"Oc1ccccc1-c1ccccc1","Oc1ccccc1-c1ccccc1",35.05982703033619,"Oc1ccccc1c1ccccc1",3.0592000000000015,20.23,170.07316494,1,1,1,1,1,0,1,13,23,0,2,2,0,0,0,0,0,2,0,0,0
"A-4779","2-(2-methylbutan-2-yl)phenol",-2.4912242204,"CCC(C)(C)c1ccccc1O","CCC(C)(C)c1ccccc1O",23.9885564910621,"CCC(C)(C)c1ccccc1O",3.079800000000002,20.23,164.120115132,1,1,2,1,1,0,1,12,28,0,1,1,0,0,0,0,0,1,0,0,0.45454545454545453
"A-4785","2,6-dimethylhept-5-enal",-2.4478585415,"CC(C)=CCCC(C)C=O","CC(C)=CCCC(C)C=O",1.724318924360884,"CC(=CCCC(C)C=O)C",2.567800000000001,17.07,140.120115132,1,0,4,0,1,0,1,10,26,1,0,0,0,0,0,0,0,0,0,0,0.6666666666666666
"A-4786","2-({2-[bis(carboxymethyl)amino]ethyl}(carboxymethyl)amino)acetic acid",-2.7667755992,"O=C([O-])CN(CC[NH+](CC(=O)[O-])CC(=O)[O-])CC(=O)[O-]","O=C([O-])CN(CC[NH+](CC(=O)[O-])CC(=O)[O-])CC(=O)[O-]",306.99443041328357,"O=C([O-])CN(CC[NH+](CC(=O)[O-])CC(=O)[O-])CC(=O)[O-]",-8.827100000000007,168.2,289.06883611573,10,1,11,1,9,0,10,20,33,0,0,0,0,0,0,0,0,0,0,0,0.6
"A-4787","6'-methoxycinchonan-9-ol",-2.8121429703,"C=C[C@H]1C[NH+]2CCC1C[C@H]2[C@H](O)c1ccnc2ccc(OC)cc12","C=C[C@H]1C[NH+]2CCC1C[C@H]2[C@H](O)c1ccnc2ccc(OC)cc12",82.30068516702123,"C=C[C@H]1C[NH+]2CCC1C[C@H]2[C@H](O)c1ccnc2ccc(OC)cc12",1.7560999999999993,46.790000000000006,325.19105446009,4,2,4,2,3,0,4,24,49,5,5,2,3,3,1,3,3,1,0,0,0.45
"A-4788","6'-methoxycinchonan-9-ol",-2.8121429703,"C=C[C@H]1C[NH+]2CC[C@H]1C[C@@H]2[C@@H](O)c1ccnc2ccc(OC)cc12","C=C[C@H]1C[NH+]2CC[C@H]1C[C@@H]2[C@@H](O)c1ccnc2ccc(OC)cc12",86.9458155355127,"C=C[C@H]1C[NH+]2CC[C@H]1C[C@@H]2[C@@H](O)c1ccnc2ccc(OC)cc12",1.7560999999999993,46.790000000000006,325.19105446009,4,2,4,2,3,0,4,24,49,5,5,2,3,3,1,3,3,1,0,0,0.45
"A-4790","N-dodecanoyl-N-methylglycine",-2.7346414392,"CCCCCCCCCCCC(=O)N(C)CC(=O)[O-]","CCCCCCCCCCCC(=O)N(C)CC(=O)[O-]",35.91881739310044,"CCCCCCCCCCCC(=O)N(C)CC(=O)[O-]",2.1155999999999997,60.44,270.20746733591,4,0,12,0,3,1,4,19,47,0,0,0,0,0,0,0,0,0,0,0,0.8666666666666667
"A-4795","(2E)-2-methyl-3-phenylprop-2-enal",-2.4747186153,"CC(C=O)=Cc1ccccc1","CC(C=O)=Cc1ccccc1",15.207385351347325,"CC(=Cc1ccccc1)C=O",2.2888,17.07,146.07316494,1,0,2,0,1,0,1,11,21,0,1,1,0,0,0,0,0,1,0,0,0.1
"A-4798","4-methylene-2-(2-methylprop-1-en-1-yl)tetrahydro-2H-pyran",-2.5104223592,"C=C1CCOC(C=C(C)C)C1","C=C1CCOC(C=C(C)C)C1",37.49429749071688,"C=C1CCOC(C=C(C)C)C1",2.687800000000001,9.23,152.120115132,1,0,1,0,1,0,1,11,27,1,1,0,1,1,0,1,1,0,0,0,0.6
"A-4801","ethyl 2-methylpentanoate",-2.4896905423,"CCCC(C)C(=O)OCC","CCCC(C)C(=O)OCC",-9.158530864913192,"CCCC(C)C(=O)OCC",1.9857,26.3,144.115029752,2,0,4,0,2,0,2,10,26,1,0,0,0,0,0,0,0,0,0,0,0.875
"A-4802","tert-butyl methacrylate",-2.4863755076,"C=C(C)C(=O)OC(C)(C)C","C=C(C)C(=O)OC(C)(C)C",-13.989951473346547,"C=C(C)C(=O)OC(C)(C)C",1.9042,26.3,142.099379688,2,0,1,0,2,0,2,10,24,0,0,0,0,0,0,0,0,0,0,0,0.625
"A-4803","1-(ethenyloxy)butane",-2.3379408202,"C=COCCCC","C=COCCCC",-0.13375250372437725,"C=COCCCC",1.9465999999999999,9.23,100.088815004,1,0,4,0,1,0,1,7,19,0,0,0,0,0,0,0,0,0,0,0,0.6666666666666666
"A-4807","N-butylbenzenesulfonamide",-2.6757824138,"CCCCNS(=O)(=O)c1ccccc1","CCCCNS(=O)(=O)c1ccccc1",-22.258700860742255,"CCCCNS(=O)(=O)c1ccccc1",1.7650000000000003,46.17,213.08234972,3,1,5,1,2,0,4,14,29,0,1,1,0,0,0,0,0,1,0,0,0.4
"A-4808","2,2,6-trimethyl-6-vinyltetrahydro-2H-pyran",-2.5359872782,"C=CC1(C)CCCC(C)(C)O1","C=CC1(C)CCCC(C)(C)O1",13.786489224277584,"C=CC1(C)CCCC(C)(C)O1",2.9102000000000015,9.23,154.135765196,1,0,1,0,1,0,1,11,29,1,1,0,1,1,0,1,1,0,0,0,0.8
"A-4810","2,3,3-trimethyl-3H-indole-5-carboxylic acid",-2.6625890537,"CC1=Nc2ccc(C(=O)[O-])cc2C1(C)C","CC1=Nc2ccc(C(=O)[O-])cc2C1(C)C",37.49486926951909,"CC1=Nc2ccc(C(=O)[O-])cc2C1(C)C",1.4337,52.489999999999995,202.08735220391,3,0,1,0,3,0,3,15,27,0,2,1,0,1,0,0,1,1,0,0,0.3333333333333333
"A-4812","2-methylcyclohexyl acetate",-2.5502978569,"CC(=O)OC1CCCCC1C","CC(=O)OC1CCCCC1C",2.487554737082382,"CC(=O)OC1CCCCC1C",2.1281999999999996,26.3,156.115029752,2,0,1,0,2,0,2,11,27,2,1,0,1,1,0,0,0,0,1,1,0.8888888888888888
"A-4816","2-ethylhexyl 2-hydroxypropanoate",-2.6735257097,"CCCCC(CC)COC(=O)C(C)O","CCCCC(CC)COC(=O)C(C)O",16.57718142668262,"CCCCC(CC)COC(=O)C(C)O",2.1268000000000007,46.53,202.156894564,3,1,7,1,3,0,3,14,36,2,0,0,0,0,0,0,0,0,0,0,0.9090909090909091
"A-4821","1-methyl-4-nitrobenzene",-2.5149437885,"Cc1ccc([N+](=O)[O-])cc1","Cc1ccc([N+](=O)[O-])cc1",20.867869647070467,"Cc1ccc([N+](=O)[O-])cc1",1.90322,43.14,137.047678464,3,0,1,0,2,0,3,10,17,0,1,1,0,0,0,0,0,1,0,0,0.14285714285714285
"A-4822","2-methoxy-4-(prop-2-en-1-yl)phenyl acetate",-2.7015911491,"C=CCc1ccc(OC(C)=O)c(OC)c1","C=CCc1ccc(OC(C)=O)c(OC)c1",31.283025889724144,"C=CCc1ccc(OC(=O)C)c(OC)c1",2.349,35.53,206.094294308,3,0,4,0,3,0,3,15,29,0,1,1,0,0,0,0,0,1,0,0,0.25
"A-4825","butyl 2-methylprop-2-enoate",-2.5443674546,"C=C(C)C(=O)OCCCC","C=C(C)C(=O)OCCCC",-18.63528829681954,"C=C(C)C(=O)OCCCC",1.9058,26.3,142.099379688,2,0,4,0,2,0,2,10,24,0,0,0,0,0,0,0,0,0,0,0,0.625
"A-4828","3,5,5-trimethylhexan-1-ol",-2.5570799155,"CC(CCO)CC(C)(C)C","CC(CCO)CC(C)(C)C",7.436672008929665,"CC(CCO)CC(C)(C)C",2.4411000000000005,20.23,144.15141526,1,1,3,1,1,0,1,10,30,1,0,0,0,0,0,0,0,0,0,0,1
"A-4831","ethyl 1,3-dioxo-1,3-dihydro-2H-isoindole-2-carboxylate",-2.7387726333,"CCOC(=O)N1C(=O)c2ccccc2C1=O","CCOC(=O)N1C(=O)c2ccccc2C1=O",-56.78523416278801,"CCOC(=O)N1C(=O)c2ccccc2C1=O",1.4391,63.68,219.053157768,5,0,1,0,4,3,5,16,25,0,2,1,0,1,0,0,1,1,0,0,0.18181818181818182
"A-4835","3-methyl-5-phenylpentan-1-ol",-2.6600258381,"CC(CCO)CCc1ccccc1","CC(CCO)CCc1ccccc1",18.199138725511308,"CC(CCO)CCc1ccccc1",2.6377000000000006,20.23,178.135765196,1,1,5,1,1,0,1,13,31,1,1,1,0,0,0,0,0,1,0,0,0.5
"A-4837","1-[bis(4-fluorophenyl)methyl]piperazine",-2.8786010762,"Fc1ccc(C(c2ccc(F)cc2)N2CC[NH2+]CC2)cc1","Fc1ccc(C(c2ccc(F)cc2)N2CC[NH2+]CC2)cc1",72.27492579270174,"Fc1ccc(C(c2ccc(F)cc2)N2CC[NH2+]CC2)cc1",1.9331999999999998,19.85,289.15108146809,2,2,3,1,1,0,4,21,40,0,3,2,1,1,0,1,1,2,0,0,0.29411764705882354
"A-4842","2-[(4-methyl-2-nitrophenyl)amino]ethan-1-ol",-2.7474051676,"Cc1ccc(NCCO)c([N+](=O)[O-])c1","Cc1ccc(NCCO)c([N+](=O)[O-])c1",48.3674437326937,"Cc1ccc(NCCO)c([N+](=O)[O-])c1",1.3074199999999998,75.39999999999999,196.084792244,5,2,4,2,4,0,5,14,26,0,1,1,0,0,0,0,0,1,0,0,0.3333333333333333
"A-4845","(ethenyloxy)cyclohexane",-2.5825419737,"C=COC1CCCCC1","C=COC1CCCCC1",15.210652576375306,"C=COC1CCCCC1",2.4792000000000005,9.23,126.104465068,1,0,2,0,1,0,1,9,23,0,1,0,1,1,0,0,0,0,1,1,0.75
"A-4846","1,4-bis(vinyloxy)butane",-2.6477435098,"C=COCCCCOC=C","C=COCCCCOC=C",0.06883726756233943,"C=COCCCCOC=C",2.0868,18.46,142.099379688,2,0,7,0,2,0,2,10,24,0,0,0,0,0,0,0,0,0,0,0,0.5
"A-4849","6-amino-4-hydroxynaphthalene-2-sulfonic acid",-2.8833112394,"Nc1ccc2cc(S(=O)(=O)[O-])cc(O)c2c1","Nc1ccc2cc(S(=O)(=O)[O-])cc(O)c2c1",25.796473898466687,"Nc1ccc2cc(S(=O)(=O)[O-])cc(O)c2c1",1.0317,103.45,238.01795231591,5,3,1,2,5,0,6,16,24,0,2,2,0,0,0,0,0,2,0,0,0
"A-4854","2-phenyl-1H-1,3-benzodiazole-5-sulfonic acid",-2.9611061362,"O=S(=O)([O-])c1ccc2nc(-c3ccccc3)[nH]c2c1","O=S(=O)([O-])c1ccc2nc(-c3ccccc3)[nH]c2c1",35.32547815252701,"O=S(=O)([O-])c1ccc2nc(c3ccccc3)[nH]c2c1",2.1340000000000003,85.88,273.03393672791003,5,1,2,1,4,0,6,19,28,0,3,3,0,0,1,0,0,2,0,0,0
"A-4863","6-methoxy-1,2,3,4-tetrahydronaphthalene",-2.7477385243,"COc1ccc2c(c1)CCCC2","COc1ccc2c(c1)CCCC2",29.061873502616905,"COc1ccc2c(c1)CCCC2",2.5740000000000007,9.23,162.104465068,1,0,1,0,1,0,1,12,26,0,2,1,0,1,0,0,0,1,0,1,0.45454545454545453
"A-4865","naphthalene-1,5-diamine",-2.7678536958,"Nc1cccc2c(N)cccc12","Nc1cccc2c(N)cccc12",29.51691624965184,"Nc1cccc2c(N)cccc12",2.0042,52.04,158.08439832,2,4,0,2,2,0,2,12,22,0,2,2,0,0,0,0,0,2,0,0,0
"A-4867","4-cyclohexylbutan-2-ol",-2.7673615716,"CC(O)CCC1CCCCC1","CC(O)CCC1CCCCC1",11.386401626288661,"CC(O)CCC1CCCCC1",2.7277000000000013,20.23,156.15141526,1,1,3,1,1,0,1,11,31,1,1,0,1,1,0,0,0,0,1,1,1
"A-4870","1,1'-[methylenebis(oxy)]dibutane",-2.8068769998,"CCCCOCOCCCC","CCCCOCOCCCC",-18.07428466637804,"CCCCOCOCCCC",2.577300000000001,18.46,160.14632988,2,0,8,0,2,0,2,11,31,0,0,0,0,0,0,0,0,0,0,0,1
"A-4872","cinchonan-9-ol",-3.0887236136,"C=C[C@H]1C[NH+]2CC[C@H]1C[C@@H]2[C@@H](O)c1ccnc2ccccc12","C=C[C@H]1C[NH+]2CC[C@H]1C[C@@H]2[C@@H](O)c1ccnc2ccccc12",78.81043681827974,"C=C[C@H]1C[NH+]2CC[C@H]1C[C@@H]2[C@@H](O)c1ccnc2ccccc12",1.7474999999999994,37.56,295.18048977609004,3,2,3,2,2,0,3,22,45,5,5,2,3,3,1,3,3,1,0,0,0.42105263157894735
"A-4874","6-[(3-{[(6-carboxycyclohex-3-en-1-yl)carbonyl]oxy}-2,2-dimethylpropoxy)carbonyl]cyclohex-3-ene-1-carboxylate",-3.0041810563,"CC1(C)COC(=O)C2CC=CCC2C(=O)OC1","CC1(C)COC(=O)C2CC=CCC2C(=O)OC1",-17.44474263026352,"CC1(C)COC(=O)C2CC=CCC2C(=O)OC1",1.695,52.60000000000001,238.120509056,4,0,0,0,4,0,4,17,35,2,2,0,1,2,0,1,1,0,0,1,0.6923076923076923
"A-4876","Neomenthol",-2.8302608531,"CC(C)[C@H]1CC[C@@H](C)CC1O","CC(C)[C@H]1CC[C@@H](C)CC1O",16.49071729942885,"CC(C)[C@H]1CC[C@@H](C)CC1O",2.439500000000001,20.23,156.15141526,1,1,1,1,1,0,1,11,31,3,1,0,1,1,0,0,0,0,1,1,1
"A-4878","methyl 2,6,6-trimethylcyclohex-2-ene-1-carboxylate",-2.9085159963,"COC(=O)C1C(C)=CCCC1(C)C","COC(=O)C1C(C)=CCCC1(C)C",22.610326249225942,"COC(=O)C1C(=CCCC1(C)C)C",2.541900000000001,26.3,182.130679816,2,0,1,0,2,0,2,13,31,1,1,0,0,1,0,0,0,0,0,1,0.7272727272727273
"A-4889","2-phenoxyethyl 2-methylpropanoate",-3.0263435366,"CC(C)C(=O)OCCOc1ccccc1","CC(C)C(=O)OCCOc1ccccc1",18.971185267935816,"CC(C)C(=O)OCCOc1ccccc1",2.2646000000000006,35.53,208.109944372,3,0,5,0,3,0,3,15,31,0,1,1,0,0,0,0,0,1,0,0,0.4166666666666667
"A-4890","7-amino-3-methyl-8-oxo-5-thia-1-azabicyclo[4.2.0]oct-2-ene-2-carboxylic acid",-3.0453554133,"CC1=C(C(=O)[O-])N2C(=O)C([NH3+])C2SC1","CC1=C(C(=O)[O-])N2C(=O)C([NH3+])C2SC1",-77.37606031724837,"CC1=C(C(=O)[O-])N2C(=O)C([NH3+])C2SC1",-2.4640999999999984,88.08,214.04121318,5,3,1,1,4,1,6,14,24,2,2,0,1,2,0,1,2,0,0,0,0.5
"A-4894","2-hydroxy-4-methylbenzamide",-2.9170001587,"Cc1ccc(C(N)=O)c(O)c1","Cc1ccc(C(N)=O)c(O)c1",20.555038605108958,"Cc1ccc(C(=O)N)c(O)c1",0.79952,63.32000000000001,151.063328528,3,3,1,2,2,1,3,11,20,0,1,1,0,0,0,0,0,1,0,0,0.125
"A-4899","2-benzyl-2-methylbut-3-enenitrile",-3.0006167172,"C=CC(C)(C#N)Cc1ccccc1","C=CC(C)(C#N)Cc1ccccc1",22.337320334883582,"C=CC(C)(C#N)Cc1ccccc1",2.944980000000001,23.79,171.104799416,1,0,3,0,1,0,1,13,26,1,1,1,0,0,0,0,0,1,0,0,0.25
"A-4900","1,4-dibutyl (2Z)-but-2-enedioate",-3.1280341619,"CCCCOC(=O)C=CC(=O)OCCCC","CCCCOC(=O)C=CC(=O)OCCCC",-27.454666467391263,"CCCCOC(=O)C=CC(=O)OCCCC",2.2291999999999996,52.60000000000001,228.13615912,4,0,8,0,4,0,4,16,36,0,0,0,0,0,0,0,0,0,0,0,0.6666666666666666
"A-4903","2-amino-3-[(2-amino-2-carboxyethyl)disulfanyl]propanoic acid",-3.1599219868,"[NH3+][C@@H](CSSC[C@H]([NH3+])C(=O)[O-])C(=O)[O-]","[NH3+][C@@H](CSSC[C@H]([NH3+])C(=O)[O-])C(=O)[O-]",-201.58270000535308,"[NH3+][C@@H](CSSC[C@H]([NH3+])C(=O)[O-])C(=O)[O-]",-4.911399999999999,135.54,240.023848864,6,6,7,2,6,0,8,14,26,2,0,0,0,0,0,0,0,0,0,0,0.6666666666666666
"A-4905","methyl 2-ethylhexanoate",-2.9898040042,"CCCCC(CC)C(=O)OC","CCCCC(CC)C(=O)OC",-8.802206324017217,"CCCCC(CC)C(=O)OC",2.375800000000001,26.3,158.130679816,2,0,5,0,2,0,2,11,29,1,0,0,0,0,0,0,0,0,0,0,0.8888888888888888
"A-4907","3-(2-hydroxyethyl)-1,2,3,4-tetrahydroquinazoline-2,4-dione",-3.1128936428,"O=c1[nH]c2ccccc2c(=O)n1CCO","O=C1Nc2ccccc2C(=O)N1CCO",-36.232165715647255,"O=c1[nH]c2ccccc2c(=O)n1CCO",0.6666000000000001,69.64,206.06914218,5,2,2,2,3,3,5,15,25,0,2,1,0,1,0,0,1,1,0,0,0.2
"A-4908","5-heptyloxolan-2-one",-3.0668187599,"CCCCCCC[C@H]1CCC(=O)O1","CCCCCCC[C@H]1CCC(=O)O1",-7.20780696058617,"CCCCCCC[C@H]1CCC(=O)O1",3.052500000000002,26.3,184.14632988,2,0,6,0,2,0,2,13,33,1,1,0,1,1,0,1,1,0,0,0,0.9090909090909091
"A-4913","2-{[(2-ethylhexyl)oxy]methyl}oxirane",-3.1148651615,"CCCCC(CC)COCC1CO1","CCCCC(CC)COCC1CO1",9.015942317063466,"CCCCC(CC)COCC1CO1",2.6182000000000007,21.759999999999998,186.161979944,2,0,8,0,2,0,2,13,35,2,1,0,1,1,0,1,1,0,0,0,1
"A-4918","bis[(2-ethylhexyl)oxy]phosphinic acid",-3.3623020198,"CCCCC(CC)COP(=O)([O-])OCC(CC)CCCC","CCCCC(CC)COP(=O)([O-])OCC(CC)CCCC",-83.29982702113098,"CCCCC(CC)COP(=O)([O-])OCC(CC)CCCC",4.920800000000005,58.59,321.22001977790995,4,0,14,0,4,0,5,21,55,2,0,0,0,0,0,0,0,0,0,0,1
"A-4920","12-aminododecanoic acid",-3.1963980912,"[NH3+]CCCCCCCCCCCC(=O)[O-]","[NH3+]CCCCCCCCCCCC(=O)[O-]",-108.61969982562408,"[NH3+]CCCCCCCCCCCC(=O)[O-]",0.8791999999999991,67.77,215.18852904,3,3,11,1,2,0,3,15,40,0,0,0,0,0,0,0,0,0,0,0,0.9166666666666666
"A-4921","2-isobutyl-4-methyltetrahydro-2H-pyran",-3.0799294807,"CC(C)CC1CC(C)CCO1","CC(C)CC1CC(C)CCO1",12.578484740390053,"CC(C)CC1CC(C)CCO1",2.8476000000000017,9.23,156.15141526,1,0,2,0,1,0,1,11,31,2,1,0,1,1,0,1,1,0,0,0,1
"A-4922","4,4'-disulfanediyldimorpholine",-3.2596343038,"C1CN(SSN2CCOCC2)CCO1","C1CN(SSN2CCOCC2)CCO1",84.79875404928097,"C1CN(SSN2CCOCC2)CCO1",0.8622000000000001,24.94,236.065319752,4,0,3,0,6,0,6,14,30,0,2,0,2,2,0,2,2,0,0,0,1
"A-4924","4-[(morpholin-4-ylcarbonothioyl)sulfanyl]morpholine",-3.2913006621,"S=C(SN1CCOCC1)N1CCOCC1","S=C(SN1CCOCC1)N1CCOCC1",103.52828097810621,"S=C(SN1CCOCC1)N1CCOCC1",0.5838999999999999,24.94,248.065319752,4,0,1,0,5,0,6,15,31,0,2,0,2,2,0,2,2,0,0,0,0.8888888888888888
"A-4926","N-(1-benzylpiperidin-4-yl)-N-phenylpropanamide",-3.4150433898,"CCC(=O)N(c1ccccc1)C1CC[NH+](Cc2ccccc2)CC1","CCC(=O)N(c1ccccc1)C1CC[NH+](Cc2ccccc2)CC1",-1.633482516810191,"CCC(=O)N(c1ccccc1)C1CC[NH+](Cc2ccccc2)CC1",2.6771000000000003,24.750000000000004,323.21178990409004,3,1,5,1,1,1,3,24,51,0,3,2,1,1,0,1,1,2,0,0,0.38095238095238093
"A-4930","2-tert-butyl-4,6-dimethylphenol",-3.1719091991,"Cc1cc(C)c(O)c(C(C)(C)C)c1","Cc1cc(C)c(O)c(C(C)(C)C)c1",16.52286543344502,"Cc1cc(C)c(O)c(C(C)(C)C)c1",3.306540000000002,20.23,178.135765196,1,1,0,1,1,0,1,13,31,0,1,1,0,0,0,0,0,1,0,0,0.5
"A-4931","4-methyl-2,3-dihydro-1H-1,3-benzodiazole-2-thione; 5-methyl-2,3-dihydro-1H-1,3-benzodiazole-2-thione",-3.13627918,"Cc1cccc2[nH]c(=S)[nH]c12","Cc1cccc2c1NC(=S)N2",24.97212391638414,"Cc1cccc2c1[nH]c(=S)[nH]2",2.11732,24.06,164.040819256,2,2,0,2,1,0,3,11,19,0,2,1,0,1,0,0,1,1,0,0,0.125
"A-4933","undecanal",-3.1520232011,"CCCCCCCCCCC=O","CCCCCCCCCCC=O",-0.8505366811998053,"CCCCCCCCCCC=O",3.7161000000000026,17.07,170.167065324,1,0,9,0,1,0,1,12,34,0,0,0,0,0,0,0,0,0,0,0,0.9090909090909091
"A-4939","1-(4-{2-[4-(2-hydroxypropoxy)phenyl]propan-2-yl}phenoxy)propan-2-ol",-3.499700952,"CC(O)COc1ccc(C(C)(C)c2ccc(OCC(C)O)cc2)cc1","CC(O)COc1ccc(C(C)(C)c2ccc(OCC(C)O)cc2)cc1",70.61920255920053,"CC(O)COc1ccc(C(C)(C)c2ccc(OCC(C)O)cc2)cc1",3.5317000000000025,58.92,344.198759376,4,2,8,2,4,0,4,25,53,2,2,2,0,0,0,0,0,2,0,0,0.42857142857142855
"A-4942","2-methylpropyl 2-phenylacetate",-3.2710471955,"CC(C)COC(=O)Cc1ccccc1","CC(C)COC(=O)Cc1ccccc1",15.672234349414769,"CC(C)COC(=O)Cc1ccccc1",2.4283,26.3,192.115029752,2,0,4,0,2,0,2,14,30,0,1,1,0,0,0,0,0,1,0,0,0.4166666666666667
"A-4943","17-hydroxy-17-(3-hydroxyprop-1-yn-1-yl)-10,13-dimethyl-1,2,6,7,8,9,10,11,12,13,14,15,16,17-tetradecahydro-3H-cyclopenta[a]phenanthren-3-one (non-preferred name)",-3.526033775,"C[C@]12CC[C@H]3[C@@H](CCC4=CC(=O)CC[C@@]43C)[C@@H]1CCC2(O)C#CCO","C[C@]12CC[C@H]3[C@@H](CCC4=CC(=O)CC[C@@]43C)[C@@H]1CCC2(O)C#CCO",66.13869743576358,"C[C@]12CC[C@H]3[C@@H](CCC4=CC(=O)CC[C@]34C)[C@@H]1CCC2(O)C#CCO",3.245100000000002,57.53,342.21949481999997,3,2,0,2,3,0,3,25,55,6,4,0,3,4,0,0,0,0,3,4,0.7727272727272727
"A-4945","5-vinylbicyclo[2.2.1]hept-2-ene",-3.0798864018,"C=CC1CC2C=CC1C2","C=CC1CC2C=CC1C2",27.757237177310888,"C=CC1CC2C=CC1C2",2.3846000000000007,0,120.093900384,0,0,1,0,0,0,0,9,21,3,2,0,1,2,0,0,0,0,1,2,0.5555555555555556
"A-4946","2,5,8,11-tetramethyldodec-6-yne-5,8-diol",-3.4375252922,"CC(C)CCC(C)(O)C#CC(C)(O)CCC(C)C","CC(C)CCC(C)(O)C#CC(C)(O)CCC(C)C",17.09828114665695,"CC(C)CCC(C)(O)C#CC(C)(O)CCC(C)C",3.364200000000002,40.46,254.2245802,2,2,6,2,2,0,2,18,48,2,0,0,0,0,0,0,0,0,0,0,0.875
"A-4952","3-(3-aminobenzenesulfonyl)aniline",-3.5118956043,"Nc1cccc(S(=O)(=O)c2cccc(N)c2)c1","Nc1cccc(S(=O)(=O)c2cccc(N)c2)c1",17.474960110550928,"Nc1cccc(S(=O)(=O)c2cccc(N)c2)c1",1.6838000000000002,86.18,248.061948624,4,4,2,2,4,0,5,17,29,0,2,2,0,0,0,0,0,2,0,0,0
"A-4953","ethyl 2,6,6-trimethylcyclohexa-1,3-diene-1-carboxylate",-3.411619706,"CCOC(=O)C1=C(C)C=CCC1(C)C","CCOC(=O)C1=C(C)C=CCC1(C)C",1.3902813974379717,"CCOC(=O)C1=C(C)C=CCC1(C)C",2.852100000000001,26.3,194.130679816,2,0,2,0,2,0,2,14,32,0,1,0,0,1,0,0,0,0,0,1,0.5833333333333334
"A-4955","Amines, C16-18 and C18-unsatd. alkyl",-3.5835100427,"CCCCCCCCCCCCCCCC[NH3+]","CCCCCCCCCCCCCCCC[NH3+]",-1.3705549479786663,"CCCCCCCCCCCCCCCC[NH3+]",4.709600000000003,27.64,242.28422657209,1,3,14,1,0,0,1,17,53,0,0,0,0,0,0,0,0,0,0,0,1
"A-4957","octadecan-1-amine",-3.6312456144,"CCCCCCCCCCCCCCCCCC[NH3+]","CCCCCCCCCCCCCCCCCC[NH3+]",-1.5735374392514607,"CCCCCCCCCCCCCCCCCC[NH3+]",5.489800000000004,27.64,270.31552670009,1,3,16,1,0,0,1,19,59,0,0,0,0,0,0,0,0,0,0,0,1
"A-4958","3-Nitrophthalonitrile",-2.9373448418,"N#Cc1cccc([N+](=O)[O-])c1C#N","N#Cc1cccc([N+](=O)[O-])c1C#N",-1.739100993466188,"N#Cc1cccc([N+](=O)[O-])c1C#N",1.3381599999999998,90.72,173.022526336,5,0,1,0,4,0,5,13,16,0,1,1,0,0,0,0,0,1,0,0,0
"A-4960","1-(5,5-dimethylcyclohex-1-en-1-yl)pent-4-en-1-one",-3.5342474855,"C=CCCC(=O)C1=CCCC(C)(C)C1","C=CCCC(=O)C1=CCCC(C)(C)C1",10.690321364206037,"C=CCCC(=O)C1=CCCC(C)(C)C1",3.6582000000000026,17.07,192.15141526,1,0,4,0,1,0,1,14,34,0,1,0,0,1,0,0,0,0,0,1,0.6153846153846154
"A-4966","4-(1-ethoxyvinyl)-3,3,5,5-tetramethylcyclohexanone",-3.6433442829,"C=C(OCC)C1C(C)(C)CC(=O)CC1(C)C","C=C(OCC)C1C(C)(C)CC(=O)CC1(C)C",21.816477105058624,"C=C(OCC)C1C(C)(C)CC(=O)CC1(C)C",3.568100000000003,26.3,224.177630008,2,0,3,0,2,0,2,16,40,0,1,0,1,1,0,0,0,0,1,1,0.7857142857142857
"A-4969","cyclohexanethiol",-3.3672139557,"SC1CCCCC1","SC1CCCCC1",9.614500136249548,"SC1CCCCC1",2.2489,0,116.065971384,0,0,0,1,1,0,1,7,19,0,1,0,1,1,0,0,0,0,1,1,1
"A-4972","N-(2,6-dimethylphenyl)-2-piperazine-1,4-diium-1-ylacetamide",0.4432827885,"Cc1cccc(C)c1NC(=O)CN1CC[NH2+]CC1","Cc1cccc(C)c1NC(=O)CN1CC[NH2+]CC1",104.58885081243466,"Cc1cccc(C)c1NC(=O)CN1CC[NH2+]CC1",0.12094000000000077,48.95,248.17573874408998,4,3,3,2,2,1,4,18,40,0,2,1,1,1,0,1,1,1,0,0,0.5
"A-4975","N-(4-fluorophenyl)-2-hydroxy-N-propan-2-ylacetamide",-1.1786398993,"CC(C)N(C(=O)CO)c1ccc(F)cc1","CC(C)N(C(=O)CO)c1ccc(F)cc1",40.51816323290206,"CC(C)N(C(=O)CO)c1ccc(F)cc1",1.5594,40.540000000000006,211.100856908,3,1,3,1,2,1,4,15,29,0,1,1,0,0,0,0,0,1,0,0,0.36363636363636365
"A-4980","prop-2-en-1-yl heptanoate",-3.5976237668,"C=CCOC(=O)CCCCCC","C=CCOC(=O)CCCCCC",-19.244410395430997,"C=CCOC(=O)CCCCCC",2.686000000000001,26.3,170.130679816,2,0,7,0,2,0,2,12,30,0,0,0,0,0,0,0,0,0,0,0,0.7
"A-4982","4-heptylphenol",-3.6597017052,"CCCCCCCc1ccc(O)cc1","CCCCCCCc1ccc(O)cc1",14.126045859042765,"CCCCCCCc1ccc(O)cc1",3.9051000000000027,20.23,192.15141526,1,1,6,1,1,0,1,14,34,0,1,1,0,0,0,0,0,1,0,0,0.5384615384615384