"ID","Name","Solubility","SMILES Canonical","Smiles (Optimized Geometry)","Energy","Smiles","SlogP","TPSA","ExactMW","NumLipinskiHBA","NumLipinskiHBD","NumRotatableBonds","NumHBD","NumHBA","NumAmideBonds","NumHeteroAtoms","NumHeavyAtoms","NumAtoms","NumStereocenters","NumRings","NumAromaticRings","NumSaturatedRings","NumAliphaticRings","NumAromaticHeterocycles","NumSaturatedHeterocycles","NumAliphaticHeterocycles","NumAromaticCarbocycles","NumSaturatedCarbocycles","NumAliphaticCarbocycles","FractionCSP3"
"A-2736","2-(2H-1,2,3-benzotriazol-2-yl)-4,6-bis(2-phenylpropan-2-yl)phenol",-7.0488126213,"CC(C)(c1ccccc1)c1cc(-n2nc3ccccc3n2)c(O)c(C(C)(C)c2ccccc2)c1","CC(C)(c1ccccc1)c1cc(-n2nc3ccccc3n2)c(O)c(C(C)(C)c2ccccc2)c1",95.81532129174747,"CC(C)(c1ccccc1)c1cc(n2nc3ccccc3n2)c(O)c(C(C)(C)c2ccccc2)c1",6.777900000000007,50.94,447.231062548,4,1,5,1,4,0,4,34,63,0,5,5,0,0,1,0,0,4,0,0,0.2
"A-2737","4,4',4''-butane-1,1,3-triyltris(2-tert-butyl-5-methylphenol)",-7.1341930505,"Cc1cc(O)c(C(C)(C)C)cc1C(C)CC(c1cc(C(C)(C)C)c(O)cc1C)c1cc(C(C)(C)C)c(O)cc1C","Cc1cc(O)c(C(C)(C)C)cc1C(C)CC(c1cc(C(C)(C)C)c(O)cc1C)c1cc(C(C)(C)C)c(O)cc1C",77.43269783394611,"Cc1cc(O)c(C(C)(C)C)cc1C(C)CC(c1cc(C(C)(C)C)c(O)cc1C)c1cc(C(C)(C)C)c(O)cc1C",9.946859999999996,60.69,544.391645524,3,3,5,3,3,0,3,40,92,1,3,3,0,0,0,0,0,3,0,0,0.5135135135135135
"A-2738","4-[(E)-2-(5-cyano-2-hydroxy-1,4-dimethyl-6-oxo-1,6-dihydropyridin-3-yl)diazen-1-yl]-N-(2-ethylhexyl)benzamide",-7.0248108563,"CCCCC(CC)CNC(=O)c1ccc(NN=C2C(=O)N(C)C(=O)C(C#N)=C2C)cc1","CCCCC(CC)CNC(=O)c1ccc(NN=C2C(=O)N(C)C(=O)C(C#N)=C2C)cc1",10.489232658629955,"CCCCC(CC)CNC(=O)c1ccc(NN=C2C(=O)N(C)C(=O)C(=C2C)C#N)cc1",3.2393800000000015,114.66,423.227039788,8,2,9,2,6,3,8,31,60,1,2,1,0,1,0,0,1,1,0,0,0.43478260869565216
"A-2740","tris[(3,5-di-tert-butyl-4-hydroxyphenyl)methyl]-1,3,5-triazinane-2,4,6-trione",-7.2923086931,"CC(C)(C)c1cc(Cn2c(=O)n(Cc3cc(C(C)(C)C)c(O)c(C(C)(C)C)c3)c(=O)n(Cc3cc(C(C)(C)C)c(O)c(C(C)(C)C)c3)c2=O)cc(C(C)(C)C)c1O","CC(C)(C)c1cc(CN2C(=O)N(Cc3cc(C(C)(C)C)c(O)c(C(C)(C)C)c3)C(=O)N(Cc3cc(C(C)(C)C)c(O)c(C(C)(C)C)c3)C2=O)cc(C(C)(C)C)c1O",-156.02327160086307,"CC(C)(C)c1cc(Cn2c(=O)n(Cc3cc(C(C)(C)C)c(O)c(C(C)(C)C)c3)c(=O)n(Cc3cc(C(C)(C)C)c(O)c(C(C)(C)C)c3)c2=O)cc(C(C)(C)C)c1O",11.768399999999986,121.62000000000002,783.518636928,9,3,6,3,6,6,9,57,126,0,4,3,1,1,0,1,1,3,0,0,0.5625
"A-2741","2-benzoyl-5-[3-(4-benzoyl-3-hydroxyphenoxy)-2-hydroxypropoxy]phenol",-7.1387547034,"O=C(c1ccccc1)c1ccc(OCC(O)COc2ccc(C(=O)c3ccccc3)c(O)c2)cc1O","O=C(c1ccccc1)c1ccc(OCC(O)COc2ccc(C(=O)c3ccccc3)c(O)c2)cc1O",107.04230191038012,"O=C(c1ccccc1)c1ccc(OCC(O)COc2ccc(C(=O)c3ccccc3)c(O)c2)cc1O",4.378500000000004,113.29000000000002,484.1522031079999,7,3,10,3,7,0,7,36,60,0,4,4,0,0,0,0,0,4,0,0,0.10344827586206896
"A-2743","(E)-N,6,6-trimethyl-N-(naphthalen-1-ylmethyl)hept-2-en-4-yn-1-amine",-4.4645461779,"C[NH+](CC=CC#CC(C)(C)C)Cc1cccc2ccccc12","C[NH+](CC=CC#CC(C)(C)C)Cc1cccc2ccccc12",2.4425328104887405,"C[NH+](CC=CC#CC(C)(C)C)Cc1cccc2ccccc12",3.460200000000002,4.44,292.20597625209,1,1,4,1,0,0,1,22,48,1,2,2,0,0,0,0,0,2,0,0,0.3333333333333333
"A-2744","2-methyl-2-[(2-methylundecan-2-yl)disulfanyl]undecane",-7.1279660508,"CCCCCCCCCC(C)(C)SSC(C)(C)CCCCCCCCC","CCCCCCCCCC(C)(C)SSC(C)(C)CCCCCCCCC",1.7491055021790882,"CCCCCCCCCC(C)(C)SSC(C)(C)CCCCCCCCC",10.206399999999995,0,402.3353936,0,0,19,0,2,0,2,26,76,0,0,0,0,0,0,0,0,0,0,0,1
"A-2745","bis(2-ethylhexyl) carbonate",-6.9799366685,"CCCCC(CC)COC(=O)OCC(CC)CCCC","CCCCC(CC)COC(=O)OCC(CC)CCCC",-24.11712936544761,"CCCCC(CC)COC(=O)OCC(CC)CCCC",5.572400000000006,35.53,286.250794948,3,0,12,0,3,0,3,20,54,2,0,0,0,0,0,0,0,0,0,0,0.9411764705882353
"A-2747","dibenzyl {[bis(benzyloxy)phosphoryl]oxy}phosphonate",-7.2540426772,"O=P(OCc1ccccc1)(OCc1ccccc1)OP(=O)(OCc1ccccc1)OCc1ccccc1","O=P(OCc1ccccc1)(OCc1ccccc1)OP(=O)(OCc1ccccc1)OCc1ccccc1",-231.52388170542324,"O=P(OCc1ccccc1)(OCc1ccccc1)OP(=O)(OCc1ccccc1)OCc1ccccc1",8.086400000000006,80.29,538.131026496,7,0,14,0,7,0,9,37,65,0,4,4,0,0,0,0,0,4,0,0,0.14285714285714285
"A-2748","4-(4-{2-[4-(4-aminophenoxy)phenyl]propan-2-yl}phenoxy)aniline",-7.1917272196,"CC(C)(c1ccc(Oc2ccc(N)cc2)cc1)c1ccc(Oc2ccc(N)cc2)cc1","CC(C)(c1ccc(Oc2ccc(N)cc2)cc1)c1ccc(Oc2ccc(N)cc2)cc1",94.19303375164135,"CC(C)(c1ccc(Oc2ccc(N)cc2)cc1)c1ccc(Oc2ccc(N)cc2)cc1",6.761500000000004,70.5,410.199428072,4,4,6,2,4,0,4,31,57,0,4,4,0,0,0,0,0,4,0,0,0.1111111111111111
"A-2751","3-(Diethylamino)-7-oxo-7H-(1)benzopyrano(3',2':3,4)pyrido(1,2-a)benzimidazole-6-carbonitrile",-7.2023327624,"CCN(CC)c1ccc2cc3c(oc2c1)c(C#N)c(=O)n1c2ccccc2nc31","CCN(CC)c1ccc2c(c1)OC1=C(C#N)C(=O)n3c(nc4ccccc43)C1=C2",49.242968107355104,"CCN(CC)c1ccc2c(c1)oc1c(C#N)c(=O)n3c(nc4ccccc34)c1c2",4.246980000000003,71.15,382.14297581600005,6,0,3,0,6,0,6,29,47,0,5,3,0,2,1,0,2,2,0,0,0.17391304347826086
"A-2752","N-{2-[(E)-2-(2,6-dicyano-4-methylphenyl)diazen-1-yl]-5-(diethylamino)phenyl}methanesulfonamide",-7.2331050936,"CCN(CC)c1ccc(N=Nc2c(C#N)cc(C)cc2C#N)c(NS(C)(=O)=O)c1","CCN(CC)c1ccc(N=Nc2c(C#N)cc(C)cc2C#N)c(NS(C)(=O)=O)c1",53.42007820889349,"CCN(CC)c1ccc(N=Nc2c(C#N)cc(C)cc2C#N)c(NS(=O)(=O)C)c1",4.371480000000004,121.70999999999998,410.152494944,8,1,7,1,7,0,9,29,51,0,2,2,0,0,0,0,0,2,0,0,0.3
"A-2754","2-[[4-[(2-cyano-3-nitrophenyl)azo]-m-tolyl](2-acetoxyethyl)amino]ethyl acetate",-7.3004650455,"CC(=O)OCCN(CCOC(C)=O)c1ccc(N=Nc2ccc([N+](=O)[O-])cc2C#N)cc1","CC(=O)OCCN(CCOC(C)=O)c1ccc(N=Nc2ccc([N+](=O)[O-])cc2C#N)cc1",57.726748648735764,"CC(=O)OCCN(CCOC(=O)C)c1ccc(N=Nc2ccc([N+](=O)[O-])cc2C#N)cc1",3.8144800000000023,147.48999999999998,439.14918339200005,11,0,10,0,10,0,11,32,53,0,2,2,0,0,0,0,0,2,0,0,0.2857142857142857
"A-2756","3-[ethyl[4-[(4-nitrophenyl)azo]phenyl]amino]propiononitrile",-7.2086509282,"CCN(CCC#N)c1ccc(N=Nc2ccc([N+](=O)[O-])cc2)cc1","CCN(CCC#N)c1ccc(N=Nc2ccc([N+](=O)[O-])cc2)cc1",75.22751688116013,"CCN(CCC#N)c1ccc(N=Nc2ccc([N+](=O)[O-])cc2)cc1",4.750180000000004,94.89,323.138224784,7,0,7,0,6,0,7,24,41,0,2,2,0,0,0,0,0,2,0,0,0.23529411764705882
"A-2757","Pigment red 149",-7.4761487948,"Cc1cc(C)cc(N2C(=O)c3ccc4c5ccc6c7c(ccc(c8ccc(c3c48)C2=O)c75)C(=O)N(c2cc(C)cc(C)c2)C6=O)c1","Cc1cc(C)cc(N2C(=O)c3ccc4c5ccc6c7c(ccc(c8ccc(c3c48)C2=O)c75)C(=O)N(c2cc(C)cc(C)c2)C6=O)c1",99.70753400074967,"Cc1cc(C)cc(n2c(=O)c3ccc4c5ccc6c7c(ccc(c8ccc(c3c48)c2=O)c57)c(=O)n(c2cc(C)cc(C)c2)c6=O)c1",8.572080000000003,74.76,598.189257312,6,0,2,0,4,4,6,46,72,0,9,7,0,2,0,0,2,7,0,0,0.1
"A-2760","Methyl 3-[n-ethyl-4-[(5-nitro-2,1-benzothiazol-3-yl)azo]anilino]propanoate",-7.3154024542,"CCN(CCC(=O)OC)c1ccc(N=Nc2snc3ccc([N+](=O)[O-])cc23)cc1","CCN(CCC(=O)OC)c1ccc(N=Nc2snc3ccc([N+](=O)[O-])cc23)cc1",63.79147843647203,"CCN(CCC(=O)OC)c1ccc(N=Nc2snc3ccc([N+](=O)[O-])cc23)cc1",5.009300000000004,110.29000000000002,413.11577508799996,9,0,8,0,9,0,10,29,48,0,3,3,0,0,1,0,0,2,0,0,0.2631578947368421
"A-2761","tetradecyl tetradecanoate",-7.3271074817,"CCCCCCCCCCCCCCOC(=O)CCCCCCCCCCCCC","CCCCCCCCCCCCCCOC(=O)CCCCCCCCCCCCC",-14.274696407397933,"CCCCCCCCCCCCCCOC(=O)CCCCCCCCCCCCC",9.931799999999997,26.3,424.42803103200004,2,0,25,0,2,0,2,30,86,0,0,0,0,0,0,0,0,0,0,0,0.9642857142857143
"A-2762","trans-4-ethyl-4'-(4-propylcyclohexyl)-1,1'-biphenyl",-7.1853905644,"CCCC1CCC(c2ccc(-c3ccc(CC)cc3)cc2)CC1","CCCC1CCC(c2ccc(-c3ccc(CC)cc3)cc2)CC1",47.215743968186686,"CCCC1CCC(c2ccc(c3ccc(CC)cc3)cc2)CC1",6.989900000000007,0,306.23475096,0,0,5,0,0,0,0,23,53,0,3,2,1,1,0,0,0,2,1,1,0.4782608695652174
"A-2763","trixylyl phosphate",-7.3122302643,"Cc1cc(C)cc(OP(=O)(Oc2cc(C)cc(C)c2)Oc2cc(C)cc(C)c2)c1","Cc1cc(C)cc(OP(=O)(Oc2cc(C)cc(C)c2)Oc2cc(C)cc(C)c2)c1",24.20709753325944,"Cc1cc(C)cc(OP(=O)(Oc2cc(C)cc(C)c2)Oc2cc(C)cc(C)c2)c1",7.182020000000006,44.760000000000005,410.164695974,4,0,6,0,4,0,5,29,56,0,3,3,0,0,0,0,0,3,0,0,0.25
"A-2764","beta,beta-carotene",-7.5537924381,"CC(C=CC=C(C)C=CC1=C(C)CCCC1(C)C)=CC=CC=C(C)C=CC=C(C)C=CC1=C(C)CCCC1(C)C","CC(C=CC=C(C)C=CC1=C(C)CCCC1(C)C)=CC=CC=C(C)C=CC=C(C)C=CC1=C(C)CCCC1(C)C",54.54179634068158,"CC(=CC=CC=C(C)C=CC=C(C)C=CC1=C(C)CCCC1(C)C)C=CC=C(C)C=CC1=C(C)CCCC1(C)C",12.605799999999977,0,536.438201792,0,0,10,0,0,0,0,40,96,0,2,0,0,2,0,0,0,0,0,2,0.45
"A-2767","(13Z)-N-octadecyldocos-13-enamide",-7.770909423,"CCCCCCCCC=CCCCCCCCCCCCC(=O)NCCCCCCCCCCCCCCCCCC","CCCCCCCCC=CCCCCCCCCCCCC(=O)NCCCCCCCCCCCCCCCCCC",-11.523764431806113,"CCCCCCCCC=CCCCCCCCCCCCC(=O)NCCCCCCCCCCCCCCCCCC",13.961999999999973,29.1,589.616166148,2,1,36,1,1,1,2,42,121,0,0,0,0,0,0,0,0,0,0,0,0.925
"A-2768","(2R)-5-amino-2-(dibenzylamino)-1,6-diphenylhex-4-en-3-one",-7.6633437338,"[NH3+]C(=CC(=O)[C@@H](Cc1ccccc1)[NH+](Cc1ccccc1)Cc1ccccc1)Cc1ccccc1","[NH3+]C(=CC(=O)[C@@H](Cc1ccccc1)[NH+](Cc1ccccc1)Cc1ccccc1)Cc1ccccc1",75.73044875892926,"[NH3+]C(=CC(=O)[C@@H](Cc1ccccc1)[NH+](Cc1ccccc1)Cc1ccccc1)Cc1ccccc1",3.8206000000000033,49.15,462.26601654817995,3,4,11,2,1,0,3,35,69,1,4,4,0,0,0,0,0,4,0,0,0.15625
"A-2769","(Z)-N-octadec-9-enylhexadecan-1-amide",-7.7040784145,"CCCCCCCCC=CCCCCCCCCNC(=O)CCCCCCCCCCCCCCC","CCCCCCCCC=CCCCCCCCCNC(=O)CCCCCCCCCCCCCCC",-7.459616088542377,"CCCCCCCCC=CCCCCCCCCNC(=O)CCCCCCCCCCCCCCC",11.621399999999985,29.1,505.522265764,2,1,30,1,1,1,2,36,103,0,0,0,0,0,0,0,0,0,0,0,0.9117647058823529
"A-2772","3-(3,5-di-tert-butyl-4-hydroxyphenyl)-N-octadecylpropanamide",-7.724189002,"CCCCCCCCCCCCCCCCCCNC(=O)CCc1cc(C(C)(C)C)c(O)c(C(C)(C)C)c1","CCCCCCCCCCCCCCCCCCNC(=O)CCc1cc(C(C)(C)C)c(O)c(C(C)(C)C)c1",8.22733661074912,"CCCCCCCCCCCCCCCCCCNC(=O)CCc1cc(C(C)(C)C)c(O)c(C(C)(C)C)c1",10.297499999999994,49.33,529.485880256,3,2,20,2,2,1,3,38,101,0,1,1,0,0,0,0,0,1,0,0,0.8
"A-2773","3-(3,5-di-tert-butyl-4-hydroxyphenyl)-N-{6-[3-(3,5-di-tert-butyl-4-hydroxyphenyl)propanamido]hexyl}propanamide",-7.8041135239,"CC(C)(C)c1cc(CCC(=O)NCCCCCCNC(=O)CCc2cc(C(C)(C)C)c(O)c(C(C)(C)C)c2)cc(C(C)(C)C)c1O","CC(C)(C)c1cc(CCC(=O)NCCCCCCNC(=O)CCc2cc(C(C)(C)C)c(O)c(C(C)(C)C)c2)cc(C(C)(C)C)c1O",13.827332975071952,"CC(C)(C)c1cc(CCC(=O)NCCCCCCNC(=O)CCc2cc(C(C)(C)C)c(O)c(C(C)(C)C)c2)cc(C(C)(C)C)c1O",8.646000000000006,98.66000000000001,636.4866085279999,6,4,13,4,4,2,6,46,110,0,2,2,0,0,0,0,0,2,0,0,0.65
"A-2776","4-{4-[(diphenoxyphosphoryl)oxy]phenyl}phenyl diphenyl phosphate",-7.813287357,"O=P(Oc1ccccc1)(Oc1ccccc1)Oc1ccc(-c2ccc(OP(=O)(Oc3ccccc3)Oc3ccccc3)cc2)cc1","O=P(Oc1ccccc1)(Oc1ccccc1)Oc1ccc(-c2ccc(OP(=O)(Oc3ccccc3)Oc3ccccc3)cc2)cc1",67.86361443874364,"O=P(Oc1ccccc1)(Oc1ccccc1)Oc1ccc(c2ccc(OP(=O)(Oc3ccccc3)Oc3ccccc3)cc2)cc1",10.643399999999989,89.52000000000001,650.1259411159999,8,0,13,0,8,0,10,46,74,0,6,6,0,0,0,0,0,6,0,0,0
"A-2777","Pigment red 178",-7.8755092242,"O=C1c2ccc3c4ccc5c6c(ccc(c7ccc(c2c37)C(=O)N1c1ccc(N=Nc2ccccc2)cc1)c64)C(=O)N(c1ccc(N=Nc2ccccc2)cc1)C5=O","O=C1c2ccc3c4ccc5c6c(ccc(c7ccc(c2c37)C(=O)N1c1ccc(N=Nc2ccccc2)cc1)c64)C(=O)N(c1ccc(N=Nc2ccccc2)cc1)C5=O",180.56877266857265,"O=c1c2ccc3c4ccc5c6c(ccc(c7ccc(c2c37)c(=O)n1c1ccc(N=Nc2ccccc2)cc1)c46)c(=O)n(c1ccc(N=Nc2ccccc2)cc1)c5=O",12.169199999999979,124.19999999999999,750.2015533120001,10,0,6,0,8,4,10,58,84,0,11,9,0,2,0,0,2,9,0,0,0
"A-2778","N-(10-benzamido-6,13-diacetamido-2,9-diethoxy-5,12-dioxa-7,14-diazapentacen-3-yl)benzamide",-7.8613826501,"CCOc1cc2c(cc1NC(=O)c1ccccc1)Oc1c(NC(C)=O)c3c(c(NC(C)=O)c1=N2)Oc1cc(NC(=O)c2ccccc2)c(OCC)cc1N=3","CCOc1cc2c(cc1NC(=O)c1ccccc1)OC1=C(NC(C)=O)C3=Nc4cc(OCC)c(NC(=O)c5ccccc5)cc4OC3=C(NC(C)=O)C1=N2",154.49369814384724,"CCOc1cc2c(cc1NC(=O)c1ccccc1)Oc1c(NC(=O)C)c3=Nc4cc(OCC)c(NC(=O)c5ccccc5)cc4Oc3c(NC(=O)C)c1=N2",6.327600000000006,178.03999999999996,726.2438120480001,14,4,10,4,10,4,14,54,88,0,7,4,0,3,0,0,2,4,0,1,0.15
"A-2779","N-octadecyloctadecanamide",-7.729153446,"CCCCCCCCCCCCCCCCCCNC(=O)CCCCCCCCCCCCCCCCC","CCCCCCCCCCCCCCCCCCNC(=O)CCCCCCCCCCCCCCCCC",-13.582590824013225,"CCCCCCCCCCCCCCCCCCNC(=O)CCCCCCCCCCCCCCCCC",12.62559999999998,29.1,535.569215956,2,1,33,1,1,1,2,38,111,0,0,0,0,0,0,0,0,0,0,0,0.9722222222222222
"A-2785","4-({3,5-bis[(2,6-di-tert-butyl-4-hydroxyphenyl)methyl]-2,4,6-trimethylphenyl}methyl)-3,5-di-tert-butylphenol",-7.9814736459,"Cc1c(Cc2cc(C(C)(C)C)c(O)c(C(C)(C)C)c2)c(C)c(Cc2cc(C(C)(C)C)c(O)c(C(C)(C)C)c2)c(C)c1Cc1cc(C(C)(C)C)c(O)c(C(C)(C)C)c1","Cc1c(Cc2cc(C(C)(C)C)c(O)c(C(C)(C)C)c2)c(C)c(Cc2cc(C(C)(C)C)c(O)c(C(C)(C)C)c2)c(C)c1Cc1cc(C(C)(C)C)c(O)c(C(C)(C)C)c1",109.71615836906517,"Cc1c(Cc2cc(C(C)(C)C)c(O)c(C(C)(C)C)c2)c(C)c(Cc2cc(C(C)(C)C)c(O)c(C(C)(C)C)c2)c(C)c1Cc1cc(C(C)(C)C)c(O)c(C(C)(C)C)c1",14.286059999999969,60.69,774.5950963560001,3,3,6,3,3,0,3,57,135,0,4,4,0,0,0,0,0,4,0,0,0.5555555555555556
"A-2788","4-(2-phenylpropan-2-yl)-N-[4-(2-phenylpropan-2-yl)phenyl]aniline",-7.7820070821,"CC(C)(c1ccccc1)c1ccc(Nc2ccc(C(C)(C)c3ccccc3)cc2)cc1","CC(C)(c1ccccc1)c1ccc(Nc2ccc(C(C)(C)c3ccccc3)cc2)cc1",84.12652267088585,"CC(C)(c1ccccc1)c1ccc(Nc2ccc(C(C)(C)c3ccccc3)cc2)cc1",8.082000000000008,12.03,405.245649992,1,1,6,1,1,0,1,31,62,0,4,4,0,0,0,0,0,4,0,0,0.2
"A-2789","2-[7-(diethylamino)-2-oxo-2H-chromen-3-yl]-1,3-benzoxazole-5-sulfonamide",-7.8310984133,"CCN(CC)c1ccc2cc(-c3nc4cc(S(N)(=O)=O)ccc4o3)c(=O)oc2c1","CCN(CC)c1ccc2c(c1)OC(=O)C(c1nc3cc(S(N)(=O)=O)ccc3o1)=C2",45.20422955650646,"CCN(CC)c1ccc2c(c1)oc(=O)c(c1nc3cc(S(=O)(=O)N)ccc3o1)c2",2.7810000000000006,115.73,413.1045417079999,8,2,5,1,7,0,9,29,48,0,4,3,0,1,1,0,1,2,0,0,0.2
"A-2790","Indanthrene",-7.9468745633,"O=c1c2ccccc2c(=O)c2c1ccc1[nH]c3c(ccc4c(=O)c5ccccc5c(=O)c43)[nH]c12","O=C1c2ccccc2C(=O)c2c1ccc1c2Nc2ccc3c(c2N1)C(=O)c1ccccc1C3=O",74.95120234121285,"O=c1c2ccccc2c(=O)c2c1ccc1c2[nH]c2ccc3c(c2[nH]1)c(=O)c1ccccc1c3=O",5.038000000000003,92.34,442.095356928,6,2,0,2,6,0,6,34,48,0,7,4,0,3,0,0,1,4,0,2,0
"A-2792","3-{3-[(2-ethylhexyl)oxy]propyl}-1-{5-[({3-[(2-ethylhexyl)oxy]propyl}carbamoyl)amino]naphthalen-1-yl}urea",-8.0680715196,"CCCCC(CC)COCCCNC(=O)Nc1cccc2c(NC(=O)NCCCOCC(CC)CCCC)cccc12","CCCCC(CC)COCCCNC(=O)Nc1cccc2c(NC(=O)NCCCOCC(CC)CCCC)cccc12",-4.2010974702683,"CCCCC(CC)COCCCNC(=O)Nc1cccc2c(NC(=O)NCCCOCC(CC)CCCC)cccc12",8.329000000000008,100.72000000000001,584.430156272,8,4,22,4,4,4,8,42,98,2,2,2,0,0,0,0,0,2,0,0,0.6470588235294118
"A-2794","2-[9-(1-{[3-(3-tert-butyl-4-hydroxy-5-methylphenyl)propanoyl]oxy}-2-methylpropan-2-yl)-2,4,8,10-tetraoxaspiro[5.5]undecan-3-yl]-2-methylpropyl 3-(3-tert-butyl-4-hydroxy-5-methylphenyl)propanoate",-8.2677435641,"Cc1cc(CCC(=O)OCC(C)(C)C2OCC3(CO2)COC(C(C)(C)COC(=O)CCc2cc(C)c(O)c(C(C)(C)C)c2)OC3)cc(C(C)(C)C)c1O","Cc1cc(CCC(=O)OCC(C)(C)C2OCC3(CO2)COC(C(C)(C)COC(=O)CCc2cc(C)c(O)c(C(C)(C)C)c2)OC3)cc(C(C)(C)C)c1O",-32.667325570353896,"Cc1cc(CCC(=O)OCC(C)(C)C2OCC3(CO2)COC(C(C)(C)COC(=O)CCc2cc(C)c(O)c(C(C)(C)C)c2)OC3)cc(C(C)(C)C)c1O",7.746040000000011,129.98000000000002,740.4499482479999,10,2,12,2,10,0,10,53,117,0,4,2,2,2,0,2,2,2,0,0,0.6744186046511628
"A-2796","3-(1,3-benzothiazol-2-yl)-7-(diethylamino)-2-oxo-2H-chromene-4-carbonitrile",-8.0974343241,"CCN(CC)c1ccc2c(C#N)c(-c3nc4ccccc4s3)c(=O)oc2c1","CCN(CC)c1ccc2c(c1)OC(=O)C(c1nc3ccccc3s1)=C2C#N",45.65837189270421,"CCN(CC)c1ccc2c(c1)oc(=O)c(c1nc3ccccc3s1)c2C#N",4.495880000000003,66.22,375.104147784,5,0,4,0,6,0,6,27,44,0,4,3,0,1,1,0,1,2,0,0,0.19047619047619047
"A-2797","4-(2-{4-[2-(3-cyanophenyl)ethenyl]phenyl}ethenyl)benzonitrile",-8.1237288456,"N#Cc1ccc(C=Cc2ccc(C=Cc3cccc(C#N)c3)cc2)cc1","N#Cc1ccc(C=Cc2ccc(C=Cc3cccc(C#N)c3)cc2)cc1",59.17043126253197,"N#Cc1ccc(C=Cc2ccc(C=Cc3cccc(C#N)c3)cc2)cc1",5.7707600000000046,47.58,332.131348512,2,0,4,0,2,0,2,26,42,0,3,3,0,0,0,0,0,3,0,0,0
"A-2798","2-[(E)-2-(2-methoxy-4-{3-methoxy-4-[(E)-2-[2-oxo-1-(phenylcarbamoyl)propyl]diazen-1-yl]phenyl}phenyl)diazen-1-yl]-3-oxo-N-phenylbutanamide",-8.6167666964,"COc1cc(-c2ccc(N=NC(C(C)=O)C(=O)Nc3ccccc3)c(OC)c2)ccc1N=NC(C(C)=O)C(=O)Nc1ccccc1","COc1cc(-c2ccc(N=NC(C(C)=O)C(=O)Nc3ccccc3)c(OC)c2)ccc1N=NC(C(C)=O)C(=O)Nc1ccccc1",148.85842208646608,"COc1cc(c2ccc(N=NC(C(=O)C)C(=O)Nc3ccccc3)c(OC)c2)ccc1N=NC(C(=O)C)C(=O)Nc1ccccc1",6.730800000000006,160.24,620.238332744,12,2,13,2,10,2,12,46,78,2,4,4,0,0,0,0,0,4,0,0,0.17647058823529413
"A-2801","tris(2-ethylhexyl) phosphate",-8.85998044,"CCCCC(CC)COP(=O)(OCC(CC)CCCC)OCC(CC)CCCC","CCCCC(CC)COP(=O)(OCC(CC)CCCC)OCC(CC)CCCC",-67.72951971500952,"CCCCC(CC)COP(=O)(OCC(CC)CCCC)OCC(CC)CCCC",8.793500000000003,44.760000000000005,434.35249674199997,4,0,21,0,4,0,5,29,80,3,0,0,0,0,0,0,0,0,0,0,1
"A-2802","2-(diphenyl-1,3,5-triazin-2-yl)-5-(hexyloxy)phenol",-9.1518109699,"CCCCCCOc1ccc(-c2nc(-c3ccccc3)nc(-c3ccccc3)n2)c(O)c1","CCCCCCOc1ccc(-c2nc(-c3ccccc3)nc(-c3ccccc3)n2)c(O)c1",-34.83857465121003,"CCCCCCOc1ccc(c2nc(c3ccccc3)nc(c3ccccc3)n2)c(O)c1",6.537300000000007,68.13000000000001,425.21032710400004,5,1,9,1,5,0,5,32,59,0,4,4,0,0,1,0,0,3,0,0,0.2222222222222222
"A-2803","(1E,19E)-10,11-dioctylicosa-1,19-diene-1,20-diamine",-9.7071062552,"CCCCCCCCCCCC=CCC=CCCCCCCCCCCCCCCCCCCCC[NH2+]CCCCCCCCCCCC=CCC=CCCCCCCCCCCCCCCCCCCCC","CCCCCCCCCCCC=CCC=CCCCCCCCCCCCCCCCCCCCC[NH2+]CCCCCCCCCCCC=CCC=CCCCCCCCCCCCCCCCCCCCC",-1.4053680259787624,"CCCCCCCCCCCC=CCC=CCCCCCCCCCCCCCCCCCCCC[NH2+]CCCCCCCCCCCC=CCC=CCCCCCCCCCCCCCCCCCCCC",25.220400000000033,16.61,1019.0980299000901,1,2,66,1,0,0,1,73,213,0,0,0,0,0,0,0,0,0,0,0,0.8888888888888888
"A-2804","1,2-bis(2-propylheptyl) benzene-1,2-dicarboxylate",-9.6499887292,"CCCCCC(CCC)COC(=O)c1ccccc1C(=O)OCC(CCC)CCCCC","CCCCCC(CCC)COC(=O)c1ccccc1C(=O)OCC(CCC)CCCCC",-4.73826137703394,"CCCCCC(CCC)COC(=O)c1ccccc1C(=O)OCC(CCC)CCCCC",7.993400000000009,52.60000000000001,446.33960995199993,4,0,18,0,4,0,4,32,78,2,1,1,0,0,0,0,0,1,0,0,0.7142857142857143
"A-2814","4-(propan-2-yl)benzene-1-sulfonic acid",0.6127511139,"CC(C)c1ccc(S(=O)(=O)[O-])cc1","CC(C)c1ccc(S(=O)(=O)[O-])cc1",20.125898333673298,"CC(C)c1ccc(S(=O)(=O)[O-])cc1",1.7141000000000002,57.2,199.04343879191,3,0,2,0,3,0,4,13,24,0,1,1,0,0,0,0,0,1,0,0,0.3333333333333333
"A-2819","4-aminobenzonitrile",-1.1429743647,"N#Cc1ccc(N)cc1","N#Cc1ccc(N)cc1",13.227496181106849,"N#Cc1ccc(N)cc1",1.14048,49.81,118.053098192,2,2,0,1,2,0,2,9,15,0,1,1,0,0,0,0,0,1,0,0,0
"A-2824","2-methylidenebutanedioic acid",-0.2250282975,"C=C(CC(=O)[O-])C(=O)[O-]","C=C(CC(=O)[O-])C(=O)[O-]",69.37027453475565,"C=C(CC(=O)[O-])C(=O)[O-]",-2.567499999999999,80.25999999999999,128.01205576782002,4,0,3,0,4,0,4,9,13,0,0,0,0,0,0,0,0,0,0,0,0.2
"A-2836","di(phenyl)methanimine",-2.7811280063,"N=C(c1ccccc1)c1ccccc1","N=C(c1ccccc1)c1ccccc1",42.19994213209007,"N=C(c1ccccc1)c1ccccc1",3.1027700000000014,23.85,181.089149352,1,1,2,1,1,0,1,14,25,0,2,2,0,0,0,0,0,2,0,0,0
"A-2846","3-(morpholin-4-yl)propane-1-sulfonic acid",0.4557825074,"O=S(=O)([O-])CCC[NH+]1CCOCC1","O=S(=O)([O-])CCC[NH+]1CCOCC1",-48.97967046249684,"O=S(=O)([O-])CCC[NH+]1CCOCC1",-2.1631999999999962,70.87,209.07217896,5,1,4,1,4,0,6,13,28,0,1,0,1,1,0,1,1,0,0,0,1
"A-2850","2-piperidin-2-ylethanol",0.6427483546,"OCC[C@@H]1CCCC[NH2+]1","OCC[C@@H]1CCCC[NH2+]1",1.5489598127076942,"OCC[C@@H]1CCCC[NH2+]1",-0.5152999999999992,36.84,130.12264055209,2,3,2,2,1,0,2,9,25,1,1,0,1,1,0,1,1,0,0,0,1
"A-2852","2-methylpropyl (2R)-2-hydroxypropanoate",-0.4128573351,"CC(C)COC(=O)[C@@H](C)O","CC(C)COC(=O)[C@@H](C)O",15.372658920373269,"CC(C)COC(=O)[C@@H](C)O",0.5664,46.53,146.094294308,3,1,3,1,3,0,3,10,24,1,0,0,0,0,0,0,0,0,0,0,0.8571428571428571
"A-2854","3-(aminomethyl)-3,5,5-trimethylcyclohexan-1-ol",0.488999371,"CC1(C)CC(O)CC(C)(C[NH3+])C1","CC1(C)CC(O)CC(C)(C[NH3+])C1",15.600361968294504,"CC1(C)CC(O)CC(C)(C[NH3+])C1",0.8055999999999999,47.870000000000005,172.16959074409,2,4,1,2,1,0,2,12,34,2,1,0,1,1,0,0,0,0,1,1,1
"A-2857","(2S)-2-hydroxy-3-(phenylamino)propane-1-sulfonate",0.1187844902,"O=S(=O)([O-])C[C@@H](O)CNc1ccccc1","O=S(=O)([O-])C[C@@H](O)CNc1ccccc1",-10.856468621983813,"O=S(=O)([O-])C[C@@H](O)CNc1ccccc1",0.004599999999999271,89.46000000000001,230.04925244391,5,2,5,2,5,0,6,15,27,1,1,1,0,0,0,0,0,1,0,0,0.3333333333333333
"A-2864","oxiran-2-ylmethyl 2-methylprop-2-enoate",-0.4537890803,"C=C(C)C(=O)OCC1CO1","C=C(C)C(=O)OCC1CO1",-20.136150303021434,"C=C(C)C(=O)OCC1CO1",0.5045,38.83,142.06299418,3,0,3,0,3,0,3,10,20,1,1,0,1,1,0,1,1,0,0,0,0.5714285714285714
"A-2865","3-nitro-2H-pyrazole",-1.2854728211,"O=[N+]([O-])c1ccn[nH]1","O=[N+]([O-])c1ccn[nH]1",-34.83593561484309,"O=[N+]([O-])c1ccn[nH]1",0.3178999999999999,71.82,113.022526336,5,1,1,1,3,0,5,8,11,0,1,1,0,0,1,0,0,0,0,0,0