"ID","Name","Solubility","SMILES Canonical","Smiles (Optimized Geometry)","Energy","Smiles","SlogP","TPSA","ExactMW","NumLipinskiHBA","NumLipinskiHBD","NumRotatableBonds","NumHBD","NumHBA","NumAmideBonds","NumHeteroAtoms","NumHeavyAtoms","NumAtoms","NumStereocenters","NumRings","NumAromaticRings","NumSaturatedRings","NumAliphaticRings","NumAromaticHeterocycles","NumSaturatedHeterocycles","NumAliphaticHeterocycles","NumAromaticCarbocycles","NumSaturatedCarbocycles","NumAliphaticCarbocycles","FractionCSP3"
"B-2028","cyanthoate",-0.6237,"CCOP(=O)(OCC)SCC(=O)NC(C)(C)C#N","CCOP(=O)(OCC)SCC(=O)NC(C)(C)C#N",-88.93519273237949,"CCOP(=O)(OCC)SCC(=O)NC(C)(C)C#N",2.3190800000000005,88.41999999999999,294.08031471800007,6,1,8,1,6,1,8,18,37,0,0,0,0,0,0,0,0,0,0,0,0.8
"B-2029","parathion-amino",-2.826,"CCOP(=S)(OCC)Oc1ccc(N)cc1","CCOP(=S)(OCC)Oc1ccc(N)cc1",-42.02469099292956,"CCOP(=S)(OCC)Oc1ccc(N)cc1",2.945100000000001,53.71,261.058851002,4,2,6,1,5,0,6,16,32,0,1,1,0,0,0,0,0,1,0,0,0.4
"B-2031","cyclopentane, pentyl-",-6.0863,"CCCCCC1CCCC1","CCCCCC1CCCC1",8.598160432406992,"CCCCCC1CCCC1",3.7569000000000026,0,140.15650064,0,0,4,0,0,0,0,10,30,0,1,0,1,1,0,0,0,0,1,1,1
"B-2032","2-[n-(2-Hydroxyethyl)-3-methyl-4-phenyldiazenylanilino]ethanol",-4.1254,"Cc1cc(N(CCO)CCO)ccc1N=Nc1ccccc1","Cc1cc(N(CCO)CCO)ccc1N=Nc1ccccc1",78.44030989759261,"Cc1cc(N(CCO)CCO)ccc1N=Nc1ccccc1",3.2014200000000015,68.42,299.163376912,5,2,7,2,5,0,5,22,43,0,2,2,0,0,0,0,0,2,0,0,0.29411764705882354
"B-2033","sulfamethomidine",-2.543,"COc1cc(NS(=O)(=O)c2ccc(N)cc2)nc(C)n1","COc1cc(NS(=O)(=O)c2ccc(N)cc2)nc(C)n1",-64.7235696996821,"COc1cc(NS(=O)(=O)c2ccc(N)cc2)nc(C)n1",1.17662,107.2,294.07866130800005,7,3,4,2,6,0,8,20,34,0,2,2,0,0,1,0,0,1,0,0,0.16666666666666666
"B-2035","propanedioic acid, dihydrazide",-0.121,"NNC(=O)CC(=O)NN","NNC(=O)CC(=O)NN",-15.568287935368012,"NNC(=O)CC(=O)NN",-2.6437,110.24,132.064725496,6,6,2,4,4,2,6,9,17,0,0,0,0,0,0,0,0,0,0,0,0.3333333333333333
"B-2037","2-butanamine, 3,3-dimethyl-",0.9861,"C[C@H]([NH3+])C(C)(C)C","C[C@H]([NH3+])C(C)(C)C",5.670307498979669,"C[C@H]([NH3+])C(C)(C)C",0.6628999999999994,27.64,102.12772593208999,1,3,0,1,0,0,1,7,23,1,0,0,0,0,0,0,0,0,0,0,1
"B-2039","d-gluconic acid, hydrazide",-0.4985,"NNC(=O)C(O)C(O)C(O)C(O)CO","NNC(=O)C(O)C(O)C(O)C(O)CO",22.744439751623922,"NNC(=O)C(O)C(O)C(O)C(O)CO",-4.587799999999996,156.26999999999998,210.085186168,8,8,5,7,7,1,8,14,28,4,0,0,0,0,0,0,0,0,0,0,0.8333333333333334
"B-2040","fuberidazole",-3.414,"c1coc(-c2nc3ccccc3[nH]2)c1","c1coc(-c2nc3ccccc3[nH]2)c1",21.004851136740673,"c1coc(c2nc3ccccc3[nH]2)c1",2.8228999999999997,41.82,184.063662876,3,1,1,1,2,0,3,14,22,0,3,3,0,0,2,0,0,1,0,0,0
"B-2044","alizarin complexone",-1.8077,"O=C([O-])C[NH+](CC(=O)[O-])Cc1cc2c(c([O-])c1O)C(=O)c1ccccc1C2=O","O=C([O-])C[NH+](CC(=O)[O-])Cc1cc2c(c([O-])c1O)C(=O)c1ccccc1C2=O",105.76414401535932,"O=C([O-])C[NH+](CC(=O)[O-])Cc1cc2c(c([O-])c1O)C(=O)c1ccccc1C2=O",-3.874099999999994,162.13,383.06521353582,9,2,6,2,8,0,9,28,41,0,3,2,0,1,0,0,0,2,0,1,0.15789473684210525
"B-2046","2,2-dimethyl-3-pentanol",-1.1514,"CCC(O)C(C)(C)C","CCC(O)C(C)(C)C",9.719223916278668,"CCC(O)C(C)(C)C",1.8034,20.23,116.120115132,1,1,1,1,1,0,1,8,24,1,0,0,0,0,0,0,0,0,0,0,1
"B-2048","propanedioic acid, hexyl-",-1.6566,"CCCCCCC(C(=O)[O-])C(=O)[O-]","CCCCCCC(C(=O)[O-])C(=O)[O-]",42.028568429993626,"CCCCCCC(C(=O)[O-])C(=O)[O-]",-0.9271999999999994,80.25999999999999,186.09030608782,4,0,7,0,4,0,4,13,27,0,0,0,0,0,0,0,0,0,0,0,0.7777777777777778
"B-2050","ethanone, 2-methoxy-1-phenyl-",-0.7616,"COCC(=O)c1ccccc1","COCC(=O)c1ccccc1",40.900259994338036,"COCC(=O)c1ccccc1",1.5157,26.3,150.06807956,2,0,3,0,2,0,2,11,21,0,1,1,0,0,0,0,0,1,0,0,0.2222222222222222
"B-2054","butanedioic acid, tetraethyl-",-2.9644,"CCC(CC)(C(=O)[O-])C(CC)(CC)C(=O)[O-]","CCC(CC)(C(=O)[O-])C(CC)(CC)C(=O)[O-]",108.99402025381488,"CCC(CC)(C(=O)[O-])C(CC)(CC)C(=O)[O-]",0.09900000000000064,80.25999999999999,228.13725627982,4,0,7,0,4,0,4,16,36,0,0,0,0,0,0,0,0,0,0,0,0.8333333333333334
"B-2055","propanoic acid, 3-butoxy-, methyl ester",-1.2909,"CCCCOCCC(=O)OC","CCCCOCCC(=O)OC",-18.331689706535155,"CCCCOCCC(=O)OC",1.3662,35.53,160.109944372,3,0,6,0,3,0,3,11,27,0,0,0,0,0,0,0,0,0,0,0,0.875
"B-2057","dipropetryne",-4.2031,"CCSc1nc(NC(C)C)nc(NC(C)C)n1","CCSc1nc(NC(C)C)nc(NC(C)C)n1",-185.46703260105028,"CCSc1nc(NC(C)C)nc(NC(C)C)n1",2.624200000000001,62.730000000000004,255.15176667199998,5,2,6,2,6,0,6,17,38,0,1,1,0,0,1,0,0,0,0,0,0.7272727272727273
"B-2059","propanoic acid, 2-methyl-, 4-nitrophenyl ester",-3.9588,"CC(C)C(=O)Oc1ccc([N+](=O)[O-])cc1","CC(C)C(=O)Oc1ccc([N+](=O)[O-])cc1",33.318400373664915,"CC(C)C(=O)Oc1ccc([N+](=O)[O-])cc1",2.1562,69.44,209.068807832,5,0,3,0,4,0,5,15,26,0,1,1,0,0,0,0,0,1,0,0,0.3
"B-2060","propanoic acid, 3-methoxy-, butyl ester",-1.2135,"CCCCOC(=O)CCOC","CCCCOC(=O)CCOC",-18.404624610796418,"CCCCOC(=O)CCOC",1.3662,35.53,160.109944372,3,0,6,0,3,0,3,11,27,0,0,0,0,0,0,0,0,0,0,0,0.875
"B-2062","1,10-phenanthroline, 5-nitro-",-3.9172,"O=[N+]([O-])c1cc2cccnc2c2ncccc12","O=[N+]([O-])c1cc2cccnc2c2ncccc12",70.64366877068437,"O=[N+]([O-])c1cc2cccnc2c2ncccc12",2.6912000000000003,68.92,225.053826464,5,0,1,0,4,0,5,17,24,0,3,3,0,0,2,0,0,1,0,0,0
"B-2063","2,4(1h,3h)-pyrimidinedione, 5-ethyl-",-1.9424,"CCc1c[nH]c(=O)[nH]c1=O","CCC1=CNC(=O)NC1=O",-35.57128844749984,"CCc1c[nH]c(=O)[nH]c1=O",0.11970000000000003,58.2,140.058577496,4,2,1,2,2,3,4,10,18,0,1,0,0,1,0,0,1,0,0,0,0.3333333333333333
"B-2064","l-aspartic acid, n-methyl-",-0.7544,"C[NH2+]C(CC(=O)[O-])C(=O)[O-]","C[NH2+]C(CC(=O)[O-])C(=O)[O-]",-96.82095205922596,"C[NH2+]C(CC(=O)[O-])C(=O)[O-]",-4.561899999999998,96.87,146.04588131591,5,2,4,1,4,0,5,10,18,1,0,0,0,0,0,0,0,0,0,0,0.6
"B-2065","benzoic acid, 2,2'-(1-oxo-1,2-ethanediyl)bis-",-2.791,"O=C([O-])c1ccccc1CC(=O)c1ccccc1C(=O)[O-]","O=C([O-])c1ccccc1CC(=O)c1ccccc1C(=O)[O-]",91.0256379188677,"O=C([O-])c1ccccc1CC(=O)c1ccccc1C(=O)[O-]",-0.16100000000000003,97.33,282.05392057982,5,0,5,0,5,0,5,21,31,0,2,2,0,0,0,0,0,2,0,0,0.0625
"B-2066","1,3-benzenedicarboxylic acid, 4-nitro-",-1.3391,"O=C([O-])c1ccc([N+](=O)[O-])c(C(=O)[O-])c1","O=C([O-])c1ccc([N+](=O)[O-])c(C(=O)[O-])c1",63.59965931052385,"O=C([O-])c1ccc([N+](=O)[O-])c(C(=O)[O-])c1",-1.6782000000000001,123.4,208.99713397582002,7,0,3,0,6,0,7,15,18,0,1,1,0,0,0,0,0,1,0,0,0
"B-2068","2h-1,3-oxazin-2-one, tetrahydro-3-[(5-nitrofurfu",-3.4757,"O=C1OCCCN1N=Cc1ccc([N+](=O)[O-])o1","O=C1OCCCN1N=Cc1ccc([N+](=O)[O-])o1",64.22990228752624,"O=C1OCCCN1N=Cc1ccc([N+](=O)[O-])o1",1.3639999999999999,98.17999999999999,239.054220388,8,0,3,0,6,1,8,17,26,0,2,1,1,1,1,1,1,0,0,0,0.3333333333333333
"B-2069","naphtho[2,1-b]furan-2(1)h-one",-2.7078,"O=C1Cc2c(ccc3ccccc23)O1","O=C1Cc2c(ccc3ccccc23)O1",38.33100053550752,"O=C1Cc2c(ccc3ccccc23)O1",2.3013000000000003,26.3,184.052429496,2,0,0,0,2,0,2,14,22,0,3,2,0,1,0,0,1,2,0,0,0.08333333333333333
"B-2071","decylpropanedioic acid",-3.99,"CCCCCCCCCCC(C(=O)[O-])C(=O)[O-]","CCCCCCCCCCC(C(=O)[O-])C(=O)[O-]",41.62049954842563,"CCCCCCCCCCC(C(=O)[O-])C(=O)[O-]",0.6331999999999995,80.25999999999999,242.15290634382,4,0,11,0,4,0,4,17,39,0,0,0,0,0,0,0,0,0,0,0,0.8461538461538461
"B-2072","benzenemethanol, 2-hydroxy-5-methyl-",-0.3143,"Cc1ccc(O)c(CO)c1","Cc1ccc(O)c(CO)c1",11.348061093152996,"Cc1ccc(O)c(CO)c1",1.1929199999999998,40.46,138.06807956,2,2,1,2,2,0,2,10,20,0,1,1,0,0,0,0,0,1,0,0,0.25
"B-2073","1h-pyrrole-2-carboxylic acid, 4-ethyl-5-formyl-3",-2.7186,"CCOC(=O)c1[nH]c(C=O)c(CC)c1C","CCOC(=O)c1[nH]c(C=O)c(CC)c1C",-16.943803080587745,"CCOC(=O)c1[nH]c(C=O)c(CC)c1C",1.87472,59.160000000000004,209.10519334,4,1,4,1,3,0,4,15,30,0,1,1,0,0,1,0,0,0,0,0,0.45454545454545453
"B-2074","niflumic acid",-4.1718,"O=C([O-])c1cccnc1Nc1cccc(C(F)(F)F)c1","O=C([O-])c1cccnc1Nc1cccc(C(F)(F)F)c1",14.441391605759957,"O=C([O-])c1cccnc1Nc1cccc(C(F)(F)F)c1",2.2074999999999996,65.05,281.05433573591,4,1,3,1,4,0,7,20,28,0,2,2,0,0,1,0,0,1,0,0,0.07692307692307693
"B-2075","2-propanone, 1-(2-piperidinyl)-",-0.4509,"CC(=O)CC1CCCC[NH2+]1","CC(=O)CC1CCCC[NH2+]1",-15.077708146161433,"CC(=O)CC1CCCC[NH2+]1",0.08140000000000003,33.68,142.12264055209,2,2,2,1,1,0,2,10,26,1,1,0,1,1,0,1,1,0,0,0,0.875
"B-2077","3,4-hexanedione, dioxime",-2.5525,"CCC(N=O)=C(CC)N[O-]","CCC(N=O)=C(CC)N[O-]",7.9170375872939935,"CCC(=C(CC)N[O-])N=O",1.8717999999999997,64.52,143.08260117191,4,1,4,1,4,0,4,10,21,0,0,0,0,0,0,0,0,0,0,0,0.6666666666666666
"B-2078","morpholine, 4,4',4''-phosphinylidynetris-",0.2984,"O=P(N1CCOCC1)(N1CCOCC1)N1CCOCC1","O=P(N1CCOCC1)(N1CCOCC1)N1CCOCC1",-58.28693908875114,"O=P(N1CCOCC1)(N1CCOCC1)N1CCOCC1",0.09110000000000129,54.480000000000004,305.150442878,7,0,3,0,4,0,8,20,44,0,3,0,3,3,0,3,3,0,0,0,1
"B-2079","benzenesulfonamide, 4-amino-n-(4,5-dimethyl-2-py",-3.1435,"Cc1cnc([N-]S(=O)(=O)c2ccc(N)cc2)nc1C","Cc1cnc([N-]S(=O)(=O)c2ccc(N)cc2)nc1C",-6.953186554336383,"Cc1cnc([N-]S(=O)(=O)c2ccc(N)cc2)nc1C",2.06974,100.04,277.07647023591005,6,2,3,1,5,0,7,19,32,0,2,2,0,0,1,0,0,1,0,0,0.16666666666666666
"B-2080","1,1,3-trimethylcyclopentane",-4.4784,"CC1CCC(C)(C)C1","CC1CCC(C)(C)C1",9.301717870099738,"CC1CCC(C)(C)C1",2.832600000000001,0,112.12520051199999,0,0,0,0,0,0,0,8,24,1,1,0,1,1,0,0,0,0,1,1,1
"B-2081","piperazine-2,5-dione, 3-methyl-",0.2903,"CC1NC(=O)CNC1=O","CC1NC(=O)CNC1=O",43.93844902580878,"CC1NC(=O)CNC1=O",-1.3790999999999998,58.2,128.058577496,4,2,0,2,2,2,4,9,17,1,1,0,1,1,0,1,1,0,0,0,0.6
"B-2085","ethanone, 1-(2-methyloxiranyl)-",0.3797,"CC(=O)C1(C)CO1","CC(=O)C1(C)CO1",4.130271866617203,"CC(=O)C1(C)CO1",0.36429999999999996,29.6,100.052429496,2,0,1,0,2,0,2,7,15,1,1,0,1,1,0,1,1,0,0,0,0.8
"B-2086","glycine, n-[(ethylthio)thioxomethyl]-",-1.0882,"CCSC(=S)NCC(=O)[O-]","CCSC(=S)NCC(=O)[O-]",16.697479387573168,"CCSC(=S)NCC(=O)[O-]",-0.6361000000000001,52.16,178.00019407591,3,1,3,1,4,0,5,10,18,0,0,0,0,0,0,0,0,0,0,0,0.6
"B-2088","carbamic acid, diethyl-, methyl ester",-0.2918,"CCN(CC)C(=O)OC","CCN(CC)C(=O)OC",-54.72875380160586,"CCN(CC)C(=O)OC",1.0946,29.540000000000003,131.094628656,3,0,2,0,2,1,3,9,22,0,0,0,0,0,0,0,0,0,0,0,0.8333333333333334
"B-2089","1-naphthalenebutanoic acid, .gamma.-oxo-",-3.4833,"O=C([O-])CCC(=O)c1cccc2ccccc12","O=C([O-])CCC(=O)c1cccc2ccccc12",22.966373273156567,"O=C([O-])CCC(=O)c1cccc2ccccc12",1.5525999999999998,57.199999999999996,227.07136779191,3,0,4,0,3,0,3,17,28,0,2,2,0,0,0,0,0,2,0,0,0.14285714285714285
"B-2091","d-fenchone",-1.8507,"CC1(C)C(=O)[C@@]2(C)CC[C@@H]1C2","CC1(C)C(=O)[C@@]2(C)CC[C@@H]1C2",31.858367106977813,"CC1(C)C(=O)[C@@]2(C)CC[C@@H]1C2",2.401700000000001,17.07,152.120115132,1,0,0,0,1,0,1,11,27,2,2,0,2,2,0,0,0,0,2,2,0.9
"B-2092","phosphonic diamide, p-phenyl-",-1.1482,"NP(N)(=O)c1ccccc1","NP(N)(=O)c1ccccc1",14.173504501171582,"NP(=O)(N)c1ccccc1",0.42239999999999955,69.11,156.04524953799998,3,4,1,2,1,0,4,10,19,0,1,1,0,0,0,0,0,1,0,0,0
"B-2093","1,3-propanediamine, n-phenyl-",-1.6543,"[NH3+]CCCNc1ccccc1","[NH3+]CCCNc1ccccc1",-3.8243046233893243,"[NH3+]CCCNc1ccccc1",0.7304999999999995,39.67,151.12297490009,2,4,4,2,1,0,2,11,26,0,1,1,0,0,0,0,0,1,0,0,0.3333333333333333
"B-2094","nitralin",-5.7601,"CCCN(CCC)c1c([N+](=O)[O-])cc(S(C)(=O)=O)cc1[N+](=O)[O-]","CCCN(CCC)c1c([N+](=O)[O-])cc(S(C)(=O)=O)cc1[N+](=O)[O-]",81.78104494099148,"CCCN(CCC)c1c([N+](=O)[O-])cc(S(=O)(=O)C)cc1[N+](=O)[O-]",2.5329000000000006,123.66,345.099456328,9,0,8,0,7,0,10,23,42,0,1,1,0,0,0,0,0,1,0,0,0.5384615384615384
"B-2095","n-phenylphthalamic acid",-4.0814,"O=C([O-])c1ccccc1C(=O)Nc1ccccc1","O=C([O-])c1ccccc1C(=O)Nc1ccccc1",28.618830205612817,"O=C([O-])c1ccccc1C(=O)Nc1ccccc1",1.3024,69.22999999999999,240.06661675991,4,1,3,1,3,1,4,18,28,0,2,2,0,0,0,0,0,2,0,0,0
"B-2099","serine, o-ethyl-",0.524,"CCOC[C@H]([NH3+])C(=O)[O-]","CCOC[C@H]([NH3+])C(=O)[O-]",-83.49932391968841,"CCOC[C@H]([NH3+])C(=O)[O-]",-2.616699999999998,77,133.073893212,4,3,4,1,3,0,4,9,20,1,0,0,0,0,0,0,0,0,0,0,0.8
"B-2100","propanoic acid, 2,2'-dithiobis-",-0.9301,"O=C([O-])CCSSCCC(=O)[O-]","O=C([O-])CCSSCCC(=O)[O-]",3.436542327591674,"O=C([O-])CCSSCCC(=O)[O-]",-1.3521999999999994,80.25999999999999,207.98749789582,4,0,7,0,6,0,6,12,20,0,0,0,0,0,0,0,0,0,0,0,0.6666666666666666
"B-2102","1-hexen-3-ol",-0.5993,"C=CC(O)CCC","C=CC(O)CCC",0.39783946301122386,"C=CC(O)CCC",1.3334,20.23,100.088815004,1,1,3,1,1,0,1,7,19,1,0,0,0,0,0,0,0,0,0,0,0.6666666666666666
"B-2103","4-methyl-1-penten-3-ol",-0.515,"C=CC(O)C(C)C","C=CC(O)C(C)C",3.4924790666582415,"C=CC(O)C(C)C",1.1893,20.23,100.088815004,1,1,2,1,1,0,1,7,19,1,0,0,0,0,0,0,0,0,0,0,0.6666666666666666
"B-2104","2-hexene-4-ol",-0.4198,"CC=CC(O)CC","CC=CC(O)CC",5.2125759230920465,"CC=CC(O)CC",1.3334,20.23,100.088815004,1,1,2,1,1,0,1,7,19,1,0,0,0,0,0,0,0,0,0,0,0.6666666666666666
"B-2105","benzenepropanoic acid, .alpha.-oxo-.beta.-phenyl",-2.3354,"O=C([O-])C(=O)C(c1ccccc1)c1ccccc1","O=C([O-])C(=O)C(c1ccccc1)c1ccccc1",107.15391780506467,"O=C([O-])C(=O)C(c1ccccc1)c1ccccc1",1.1374999999999995,57.199999999999996,239.07136779190998,3,0,4,0,3,0,3,18,29,0,2,2,0,0,0,0,0,2,0,0,0.06666666666666667
"B-2106","kasugamycin",-2.9342,"CN(C)C(=O)Nc1cccc(OC(=O)NC(C)(C)C)c1","CN(C)C(=O)Nc1cccc(OC(=O)NC(C)(C)C)c1",-26.389552345159736,"CN(C)C(=O)Nc1cccc(OC(=O)NC(C)(C)C)c1",2.6670000000000007,70.67,279.158291532,6,2,2,2,3,3,6,20,41,0,1,1,0,0,0,0,0,1,0,0,0.42857142857142855
"B-2107","phosphinic acid, di-4-morpholinyl-, phenyl ester",0.3925,"O=P(Oc1ccccc1)(N1CCOCC1)N1CCOCC1","O=P(Oc1ccccc1)(N1CCOCC1)N1CCOCC1",-19.643817650071895,"O=P(Oc1ccccc1)(N1CCOCC1)N1CCOCC1",1.8378999999999994,51.239999999999995,312.12389378200004,6,0,4,0,4,0,7,21,42,0,3,1,2,2,0,2,2,1,0,0,0.5714285714285714
"B-2108","propanoic acid, 3-hydroxy-, butyl ester",-1.2899,"CCCCOC(=O)CCO","CCCCOC(=O)CCO",-23.098587065644153,"CCCCOC(=O)CCO",0.7121,46.53,146.094294308,3,1,5,1,3,0,3,10,24,0,0,0,0,0,0,0,0,0,0,0,0.8571428571428571
"B-2110","butanedioic acid, 2,2'-thiobis-",-0.4908,"O=C([O-])CC(SC(CC(=O)[O-])C(=O)[O-])C(=O)[O-]","O=C([O-])CC(SC(CC(=O)[O-])C(=O)[O-])C(=O)[O-]",383.70094576420234,"O=C([O-])CC(SC(CC(=O)[O-])C(=O)[O-])C(=O)[O-]",-5.763399999999999,160.51999999999998,261.98053247164006,8,0,8,0,9,0,9,17,23,2,0,0,0,0,0,0,0,0,0,0,0.5
"B-2111","3-methyl-2-nitrophenol",-1.64,"Cc1cccc([O-])c1[N+](=O)[O-]","Cc1cccc([O-])c1[N+](=O)[O-]",72.19145151951508,"Cc1cccc([O-])c1[N+](=O)[O-]",0.9768199999999998,66.2,152.03531663191,4,0,1,0,3,0,4,11,17,0,1,1,0,0,0,0,0,1,0,0,0.14285714285714285
"B-2113","2-benzothiazolesulfenamide, n,n-dicyclohexyl-",-6.7886,"c1ccc2sc(SN(C3CCCCC3)C3CCCCC3)nc2c1","c1ccc2sc(SN(C3CCCCC3)C3CCCCC3)nc2c1",55.484645726806,"c1ccc2sc(SN(C3CCCCC3)C3CCCCC3)nc2c1",6.270800000000005,16.130000000000003,346.15374083200004,2,0,4,0,4,0,4,23,49,0,4,2,2,2,1,0,0,1,2,2,0.631578947368421
"B-2114","benzoic acid, 4,5-dimethoxy-2-nitro-",-0.7543,"COc1cc(C(=O)[O-])c([N+](=O)[O-])cc1OC","COc1cc(C(=O)[O-])c([N+](=O)[O-])cc1OC",24.341125377447796,"COc1cc(C(=O)[O-])c([N+](=O)[O-])cc1OC",-0.024499999999999966,101.73,226.03571055591001,7,0,4,0,6,0,7,16,24,0,1,1,0,0,0,0,0,1,0,0,0.2222222222222222
"B-2115","benzoic acid, 2-(acetyloxy)-, 4-(acetylamino)phe",-4.1949,"CC(=O)Nc1ccc(OC(=O)c2ccccc2OC(C)=O)cc1","CC(=O)Nc1ccc(OC(=O)c2ccccc2OC(C)=O)cc1",54.060586152451826,"CC(=O)Nc1ccc(OC(=O)c2ccccc2OC(=O)C)cc1",2.789500000000001,81.69999999999999,313.09502258,6,1,4,1,5,1,6,23,38,0,2,2,0,0,0,0,0,2,0,0,0.11764705882352941
"B-2116","piperidine, 1-(phenylsulfonyl)-",-2.5365,"O=S(=O)(c1ccccc1)N1CCCCC1","O=S(=O)(c1ccccc1)N1CCCCC1",-45.61060439645266,"O=S(=O)(c1ccccc1)N1CCCCC1",1.8612000000000002,37.38,225.08234972,3,0,2,0,2,0,4,15,30,0,2,1,1,1,0,1,1,1,0,0,0.45454545454545453
"B-2117","benzeneacetonitrile, .alpha.-(diethylamino)-",-0.9738,"CCN(CC)C(C#N)c1ccccc1","CCN(CC)C(C#N)c1ccccc1",45.41891863804884,"CCN(CC)C(C#N)c1ccccc1",2.5930800000000005,27.03,188.131348512,2,0,4,0,2,0,2,14,30,1,1,1,0,0,0,0,0,1,0,0,0.4166666666666667
"B-2121","quinoline, 2-(nitromethyl)-",-2.0545,"O=[N+]([O-])Cc1ccc2ccccc2n1","O=[N+]([O-])Cc1ccc2ccccc2n1",38.840244201331714,"O=[N+]([O-])Cc1ccc2ccccc2n1",2.0115,56.03,188.058577496,4,0,2,0,3,0,4,14,22,0,2,2,0,0,1,0,0,1,0,0,0.1
"B-2122","ditalimfos (laptran)",-3.3522,"CCOP(=S)(OCC)N1C(=O)c2ccccc2C1=O","CCOP(=S)(OCC)N1C(=O)c2ccccc2C1=O",-141.90206540983814,"CCOP(=S)(OCC)N1C(=O)c2ccccc2C1=O",2.5801000000000007,55.84,299.03811555799996,5,0,5,0,5,2,7,19,33,0,2,1,0,1,0,0,1,1,0,0,0.3333333333333333
"B-2123","hexanedioic acid, 2,5-dimercapto-",-2.4758,"O=C([O-])C(S)CCC(S)C(=O)[O-]","O=C([O-])C(S)CCC(S)C(=O)[O-]",114.77965917895634,"O=C([O-])C(S)CCC(S)C(=O)[O-]",-2.1368,80.25999999999999,207.98749789582,4,0,5,2,6,0,6,12,20,2,0,0,0,0,0,0,0,0,0,0,0.6666666666666666
"B-2124","l-aspartic acid, n-[(ethylthio)thioxomethyl]-",-1.3863,"CCSC(=S)N[C@@H](CC(=O)[O-])C(=O)[O-]","CCSC(=S)N[C@@H](CC(=O)[O-])C(=O)[O-]",63.385093738619595,"CCSC(=S)N[C@@H](CC(=O)[O-])C(=O)[O-]",-2.1274999999999986,92.28999999999999,234.99839692782,5,1,5,1,6,0,7,14,23,1,0,0,0,0,0,0,0,0,0,0,0.5714285714285714
"B-2126","1,4-benzenedicarboxylic acid, 2-methoxy-",-1.9916,"COc1cc(C(=O)[O-])ccc1C(=O)[O-]","COc1cc(C(=O)[O-])ccc1C(=O)[O-]",79.71993834185174,"COc1cc(C(=O)[O-])ccc1C(=O)[O-]",-1.5777999999999999,89.49000000000001,194.02262045182002,5,0,3,0,5,0,5,14,20,0,1,1,0,0,0,0,0,1,0,0,0.1111111111111111
"B-2129","dimethirimol",-2.2416,"CCCCc1c(C)[nH]c(N(C)C)nc1=O","CCCCC1=C(C)NC(N(C)C)=NC1=O",-54.90697368682715,"CCCCc1c(C)[nH]c(N(C)C)nc1=O",1.4979999999999998,44.7,209.152812228,4,1,3,1,3,1,4,15,34,0,1,0,0,1,0,0,1,0,0,0,0.6363636363636364
"B-2130","benzeneacetic acid, -[(sulfooxy)methyl]-, 8-meth",-1.5675,"C[NH+]1C2CCC1CC(OC(=O)C(COS(=O)(=O)[O-])c1ccccc1)C2","C[NH+]1C2CCC1CC(OC(=O)C(COS(=O)(=O)[O-])c1ccccc1)C2",-100.6695342464396,"C[NH+]1C2CCC1CC(OC(=O)C(COS(=O)(=O)[O-])c1ccccc1)C2",-0.0016999999999980364,97.17,369.12460845600003,7,1,6,1,6,0,8,25,48,3,3,1,2,2,0,2,2,1,0,0,0.5882352941176471
"B-2133","cyclohexylacetic acid",-1.6935,"O=C([O-])CC1CCCCC1","O=C([O-])CC1CCCCC1",13.051698760059361,"O=C([O-])CC1CCCCC1",0.7066999999999996,40.129999999999995,141.09210323591,2,0,2,0,2,0,2,10,23,0,1,0,1,1,0,0,0,0,1,1,0.875
"B-2134","propanamide, n-hexadecyl-2-hydroxy-",-3.6512,"CCCCCCCCCCCCCCCCNC(=O)C(C)O","CCCCCCCCCCCCCCCCNC(=O)C(C)O",9.10419037526578,"CCCCCCCCCCCCCCCCNC(=O)C(C)O",4.964700000000005,49.33,313.298079488,3,2,16,2,2,1,3,22,61,1,0,0,0,0,0,0,0,0,0,0,0.9473684210526315
"B-2135","propanamide, 2-hydroxy-n-pentyl-",-0.3825,"CCCCCNC(=O)C(C)O","CCCCCNC(=O)C(C)O",10.123349194657253,"CCCCCNC(=O)C(C)O",0.6735999999999998,49.33,159.125928784,3,2,5,2,2,1,3,11,28,1,0,0,0,0,0,0,0,0,0,0,0.875
"B-2136","d-glycero-d-gulo-heptopyranoside, phenyl, -",-1.5537,"OCC(O)C1OC(Oc2ccccc2)C(O)C(O)C1O","OCC(O)C1OC(Oc2ccccc2)C(O)C(O)C1O",75.11458613005114,"OCC(O)C1OC(Oc2ccccc2)C(O)C(O)C1O",-1.7738000000000003,119.61000000000001,286.105252916,7,5,4,5,7,0,7,20,38,6,2,1,1,1,0,1,1,1,0,0,0.5384615384615384
"B-2137","phosphonic acid, 3-(nitrophenyl)-",0.6835,"O=[N+]([O-])c1cccc(P(=O)([O-])[O-])c1","O=[N+]([O-])c1cccc(P(=O)([O-])[O-])c1",24.17996538028762,"O=[N+]([O-])c1cccc(P(=O)([O-])[O-])c1",-0.8662000000000003,106.33,200.98380601782,6,0,2,0,5,0,7,13,17,0,1,1,0,0,0,0,0,1,0,0,0
"B-2138","3-pyridinecarboxylic acid, decyl ester",-3.1901,"CCCCCCCCCCOC(=O)c1cccnc1","CCCCCCCCCCOC(=O)c1cccnc1",3.7801631794413733,"CCCCCCCCCCOC(=O)c1cccnc1",4.379100000000004,39.19,263.18852904,3,0,10,0,3,0,3,19,44,0,1,1,0,0,1,0,0,0,0,0,0.625
"B-2139","dl-leucine, n-formyl-",-0.7328,"CC(C)CC(NC=O)C(=O)[O-]","CC(C)CC(NC=O)C(=O)[O-]",30.479635963797975,"CC(C)CC(NC=O)C(=O)[O-]",-1.1029999999999993,69.23,158.08226682391,4,1,5,1,3,1,4,11,23,1,0,0,0,0,0,0,0,0,0,0,0.7142857142857143
"B-2141","methanesulfonamide, n-(methylsulfonyl)-",0.0402,"CS(=O)(=O)NS(C)(=O)=O","CS(=O)(=O)NS(C)(=O)=O",-104.4824026398082,"CS(=O)(=O)NS(=O)(=O)C",-1.5047999999999992,80.31,172.981649704,5,1,2,1,4,0,7,9,16,0,0,0,0,0,0,0,0,0,0,0,1
"B-2142","propionic acid, 3-methoxy-, propyl ester",-0.6598,"CCCOC(=O)CCOC","CCCOC(=O)CCOC",-16.599396686643324,"CCCOC(=O)CCOC",0.9761,35.53,146.094294308,3,0,5,0,3,0,3,10,24,0,0,0,0,0,0,0,0,0,0,0,0.8571428571428571