"ID","Name","Solubility","SMILES Canonical","Smiles (Optimized Geometry)","Energy","Smiles","SlogP","TPSA","ExactMW","NumLipinskiHBA","NumLipinskiHBD","NumRotatableBonds","NumHBD","NumHBA","NumAmideBonds","NumHeteroAtoms","NumHeavyAtoms","NumAtoms","NumStereocenters","NumRings","NumAromaticRings","NumSaturatedRings","NumAliphaticRings","NumAromaticHeterocycles","NumSaturatedHeterocycles","NumAliphaticHeterocycles","NumAromaticCarbocycles","NumSaturatedCarbocycles","NumAliphaticCarbocycles","FractionCSP3"
"A-2155","N-(2-ethoxyphenyl)-N'-(2-ethylphenyl)ethanediamide",-6.0175466725,"CCOc1ccccc1NC(=O)C(=O)Nc1ccccc1CC","CCOc1ccccc1NC(=O)C(=O)Nc1ccccc1CC",82.24066162931882,"CCOc1ccccc1NC(=O)C(=O)Nc1ccccc1CC",3.2249000000000017,67.42999999999999,312.1473925,5,2,5,2,3,2,5,23,43,0,2,2,0,0,0,0,0,2,0,0,0.2222222222222222
"A-2157","oxacyclohexadecan-2-one",-5.9037897228,"O=C1CCCCCCCCCCCCCCO1","O=C1CCCCCCCCCCCCCCO1",3.6795963639550155,"O=C1CCCCCCCCCCCCCCO1",4.614500000000004,26.3,240.208930136,2,0,0,0,2,0,2,17,45,0,1,0,1,1,0,1,1,0,0,0,0.9333333333333333
"A-2158","2,2'-vinylenebis[5-methylbenzoxazole]",-6.0004819491,"Cc1ccc2oc(C=Cc3nc4cc(C)ccc4o3)nc2c1","Cc1ccc2oc(C=Cc3nc4cc(C)ccc4o3)nc2c1",31.517826569219945,"Cc1ccc2oc(C=Cc3nc4cc(C)ccc4o3)nc2c1",4.756240000000003,52.06,290.105527688,4,0,2,0,4,0,4,22,36,0,4,4,0,0,2,0,0,2,0,0,0.1111111111111111
"A-2167","N,N-diethyl-4-[(E)-2-phenyldiazen-1-yl]aniline",-5.9821152675,"CCN(CC)c1ccc(N=Nc2ccccc2)cc1","CCN(CC)c1ccc(N=Nc2ccccc2)cc1",50.01433387186301,"CCN(CC)c1ccc(N=Nc2ccccc2)cc1",4.948200000000004,27.96,253.15789760799998,3,0,5,0,3,0,3,19,38,0,2,2,0,0,0,0,0,2,0,0,0.25
"A-2169","2-ethyl-9,10-dihydroanthracene-9,10-dione",-5.9842424969,"CCc1ccc2c(c1)C(=O)c1ccccc1C2=O","CCc1ccc2c(c1)C(=O)c1ccccc1C2=O",32.28074223443765,"CCc1ccc2c(c1)C(=O)c1ccccc1C2=O",3.024400000000001,34.14,236.083729624,2,0,1,0,2,0,2,18,30,0,3,2,0,1,0,0,0,2,0,1,0.125
"A-2172","(4-methyl-4-phenylpent-1-en-2-yl)benzene",-6.0118424704,"C=C(CC(C)(C)c1ccccc1)c1ccccc1","C=C(CC(C)(C)c1ccccc1)c1ccccc1",42.87982960570673,"C=C(CC(C)(C)c1ccccc1)c1ccccc1",5.067700000000004,0,236.15650064,0,0,4,0,0,0,0,18,38,0,2,2,0,0,0,0,0,2,0,0,0.2222222222222222
"A-2176","1,4-dimethyl 2-[(E)-2-{2-oxo-1-[(2-oxo-2,3-dihydro-1H-1,3-benzodiazol-5-yl)carbamoyl]propyl}diazen-1-yl]benzene-1,4-dicarboxylate",-6.3140693713,"COC(=O)c1ccc(C(=O)OC)c(N=NC(C(C)=O)C(=O)Nc2ccc3[nH]c(=O)[nH]c3c2)c1","COC(=O)c1ccc(C(=O)OC)c(N=NC(C(C)=O)C(=O)Nc2ccc3c(c2)NC(=O)N3)c1",57.861105742768416,"COC(=O)c1ccc(C(=O)OC)c(N=NC(C(=O)C)C(=O)Nc2ccc3c(c2)[nH]c(=O)[nH]3)c1",2.8972000000000007,164.62,453.12844794800003,12,3,7,3,9,3,12,33,52,1,3,2,0,1,0,0,1,2,0,0,0.19047619047619047
"A-2177","2-decyloxirane",-5.9231568495,"CCCCCCCCCCC1CO1","CCCCCCCCCCC1CO1",-0.17120573896855146,"CCCCCCCCCCC1CO1",3.916000000000003,12.53,184.182715388,1,0,9,0,1,0,1,13,37,1,1,0,1,1,0,1,1,0,0,0,1
"A-2178","2-dodecyloxirane",-5.9846848009,"CCCCCCCCCCCCC1CO1","CCCCCCCCCCCCC1CO1",-0.3597461214445755,"CCCCCCCCCCCCC1CO1",4.696200000000004,12.53,212.21401551600002,1,0,11,0,1,0,1,15,43,1,1,0,1,1,0,1,1,0,0,0,1
"A-2179","Decahydrospiro[furan-2(3H),5'-[4,7]methano[5h]indene]",-5.9415611202,"C1CC2C3CC(C2C1)C1(CCCO1)C3","C1CC2C3CC(C2C1)C1(CCCO1)C3",47.14432947846859,"C1CC2C3CC(C2C1)C1(CCCO1)C3",2.9917000000000016,9.23,192.15141526,1,0,0,0,1,0,1,14,34,5,4,0,4,4,0,1,1,0,3,3,1
"A-2181","2-[1-(2-hydroxy-3,5-dimethylphenyl)-2-methylpropyl]-4,6-dimethylphenol",-6.1673406199,"Cc1cc(C)c(O)c(C(c2cc(C)cc(C)c2O)C(C)C)c1","Cc1cc(C)c(O)c(C(c2cc(C)cc(C)c2O)C(C)C)c1",25.692218091690485,"Cc1cc(C)c(O)c(C(c2cc(C)cc(C)c2O)C(C)C)c1",5.119380000000004,40.46,298.193280072,2,2,3,2,2,0,2,22,48,0,2,2,0,0,0,0,0,2,0,0,0.4
"A-2183","1,3-dimethyl 5-[(E)-2-{2-oxo-1-[(2-oxo-2,3-dihydro-1H-1,3-benzodiazol-5-yl)carbamoyl]propyl}diazen-1-yl]benzene-1,3-dicarboxylate",-6.3777384512,"COC(=O)c1cc(N=NC(C(C)=O)C(=O)Nc2ccc3[nH]c(=O)[nH]c3c2)cc(C(=O)OC)c1","COC(=O)c1cc(N=NC(C(C)=O)C(=O)Nc2ccc3c(c2)NC(=O)N3)cc(C(=O)OC)c1",52.045524615924144,"COC(=O)c1cc(N=NC(C(=O)C)C(=O)Nc2ccc3c(c2)[nH]c(=O)[nH]3)cc(C(=O)OC)c1",2.8972000000000007,164.61999999999998,453.12844794800003,12,3,7,3,9,3,12,33,52,1,3,2,0,1,0,0,1,2,0,0,0.19047619047619047
"A-2184","5,7-dihydroxy-2-(3-hydroxy-4-methoxyphenyl)-4H-chromen-4-one",-6.1987525576,"COc1ccc(-c2cc(=O)c3c([O-])cc(O)cc3o2)cc1O","COc1ccc(C2=CC(=O)c3c([O-])cc(O)cc3O2)cc1O",94.04175770041195,"COc1ccc(c2cc(=O)c3c([O-])cc(O)cc3o2)cc1O",1.7961999999999994,99.05000000000001,299.05611165191,6,2,2,2,6,0,6,22,33,0,3,2,0,1,0,0,1,2,0,0,0.0625
"A-2187","3,3,4,4,5,5,6,6,7,7,8,8,8-tridecafluorooctyl prop-2-enoate",-6.3541593341,"C=CC(=O)OCCC(F)(F)C(F)(F)C(F)(F)C(F)(F)C(F)(F)C(F)(F)F","C=CC(=O)OCCC(F)(F)C(F)(F)C(F)(F)C(F)(F)C(F)(F)C(F)(F)F",41.82194104066128,"C=CC(=O)OCCC(F)(F)C(F)(F)C(F)(F)C(F)(F)C(F)(F)C(F)(F)F",4.844500000000001,26.3,418.02384632400003,2,0,8,0,2,0,15,26,33,0,0,0,0,0,0,0,0,0,0,0,0.7272727272727273
"A-2188","bis(8-methylnonyl) phenyl phosphite",-6.3820299142,"CC(C)CCCCCCCOP(OCCCCCCCC(C)C)Oc1ccccc1","CC(C)CCCCCCCOP(OCCCCCCCC(C)C)Oc1ccccc1",6.2662934215119375,"CC(C)CCCCCCCOP(OCCCCCCCC(C)C)Oc1ccccc1",9.3187,27.69,438.32628199399994,3,0,20,0,3,0,4,30,77,0,1,1,0,0,0,0,0,1,0,0,0.7692307692307693
"A-2193","2-methyl-9,10-dihydroanthracene-9,10-dione",-6.1171462485,"Cc1ccc2c(c1)C(=O)c1ccccc1C2=O","Cc1ccc2c(c1)C(=O)c1ccccc1C2=O",30.83435551616143,"Cc1ccc2c(c1)C(=O)c1ccccc1C2=O",2.7704200000000005,34.14,222.06807956,2,0,0,0,2,0,2,17,27,0,3,2,0,1,0,0,0,2,0,1,0.06666666666666667
"A-2200","1-N,4-N-diphenylbenzene-1,4-diamine",-6.2394496415,"c1ccc(Nc2ccc(Nc3ccccc3)cc2)cc1","c1ccc(Nc2ccc(Nc3ccccc3)cc2)cc1",53.43298245488528,"c1ccc(Nc2ccc(Nc3ccccc3)cc2)cc1",5.1738000000000035,24.06,260.131348512,2,2,4,2,2,0,2,20,36,0,3,3,0,0,0,0,0,3,0,0,0
"A-2201","2,6-dimethyl naphthalene-2,6-dicarboxylate",-6.211736201,"COC(=O)c1ccc2cc(C(=O)OC)ccc2c1","COC(=O)c1ccc2cc(C(=O)OC)ccc2c1",17.043793694054145,"COC(=O)c1ccc2cc(C(=O)OC)ccc2c1",2.4130000000000003,52.60000000000001,244.073558864,4,0,2,0,4,0,4,18,30,0,2,2,0,0,0,0,0,2,0,0,0.14285714285714285
"A-2206","1,4-dihydroxy-9,10-dihydroanthracene-9,10-dione",-6.2534935167,"O=C1c2ccccc2C(=O)c2c([O-])ccc([O-])c21","O=C1c2ccccc2C(=O)c2c([O-])ccc([O-])c21",169.21866607118284,"O=C1c2ccccc2C(=O)c2c([O-])ccc([O-])c12",0.6091999999999996,80.26,238.02770583182001,4,0,0,0,4,0,4,18,24,0,3,2,0,1,0,0,0,2,0,1,0
"A-2210","1,2-bis(propan-2-yl)naphthalene",-6.2301136188,"CC(C)c1ccc2ccccc2c1C(C)C","CC(C)c1ccc2ccccc2c1C(C)C",37.9314750186332,"CC(C)c1ccc2ccccc2c1C(C)C",5.086600000000004,0,212.15650064,0,0,2,0,0,0,0,16,36,0,2,2,0,0,0,0,0,2,0,0,0.375
"A-2217","4-{4-[4-(4-methoxyphenyl)piperazin-1-yl]phenyl}-4,5-dihydro-1H-1,2,4-triazol-5-one",-6.4889092646,"COc1ccc(N2CCN(c3ccc(-n4cn[nH]c4=O)cc3)CC2)cc1","COc1ccc(N2CCN(c3ccc(N4C=NNC4=O)cc3)CC2)cc1",149.33842268783724,"COc1ccc(N2CCN(c3ccc(n4cn[nH]c4=O)cc3)CC2)cc1",2.494700000000001,60.410000000000004,351.169524912,7,1,4,1,5,2,7,26,47,0,4,2,1,2,0,1,2,2,0,0,0.2631578947368421
"A-2221","1,1-bis(tert-butylperoxy)-3,3,5-trimethylcyclohexane",-6.4806607684,"CC1CC(C)(C)CC(OOC(C)(C)C)(OOC(C)(C)C)C1","CC1CC(C)(C)CC(OOC(C)(C)C)(OOC(C)(C)C)C1",49.425913981732506,"CC1CC(C)(C)CC(OOC(C)(C)C)(OOC(C)(C)C)C1",5.022300000000005,36.92,302.245709568,4,0,4,0,4,0,4,21,55,1,1,0,1,1,0,0,0,0,1,1,1
"A-2225","(1R,4E,9S)-4,11,11-trimethyl-8-methylidenebicyclo[7.2.0]undec-4-ene",-6.3372616649,"C=C1CCC=C(C)CC[C@@H]2[C@@H]1CC2(C)C","C=C1CCC=C(C)CC[C@@H]2[C@@H]1CC2(C)C",16.793704649386743,"C=C1CCC=C(C)CC[C@@H]2[C@@H]1CC2(C)C",4.7252000000000045,0,204.187800768,0,0,0,0,0,0,0,15,39,2,2,0,1,2,0,0,0,0,1,2,0.7333333333333333
"A-2229","1,1'-(2,3-dimethylbutane-2,3-diyl)dibenzene",-6.4741688972,"CC(C)(c1ccccc1)C(C)(C)c1ccccc1","CC(C)(c1ccccc1)C(C)(C)c1ccccc1",51.75565413250578,"CC(C)(c1ccccc1)C(C)(C)c1ccccc1",4.942000000000005,0,238.172150704,0,0,3,0,0,0,0,18,40,0,2,2,0,0,0,0,0,2,0,0,0.3333333333333333
"A-2231","2-(benzyloxy)naphthalene",-6.4776739787,"c1ccc(COc2ccc3ccccc3c2)cc1","c1ccc(COc2ccc3ccccc3c2)cc1",44.70733646204244,"c1ccc(COc2ccc3ccccc3c2)cc1",4.418800000000003,9.23,234.104465068,1,0,3,0,1,0,1,18,32,0,3,3,0,0,0,0,0,3,0,0,0.058823529411764705
"A-2233","3-hydroxy-N-(3-nitrophenyl)-2-naphthamide",-6.6438656239,"O=C(Nc1cccc([N+](=O)[O-])c1)c1cc2ccccc2cc1O","O=C(Nc1cccc([N+](=O)[O-])c1)c1cc2ccccc2cc1O",51.55434737949838,"O=C(Nc1cccc([N+](=O)[O-])c1)c1cc2ccccc2cc1O",3.705900000000001,92.47,308.079706864,6,2,3,2,4,1,6,23,35,0,3,3,0,0,0,0,0,3,0,0,0
"A-2238","Terphenyl, hydrogenated",-6.5919290491,"C1=CC(c2ccc(C3CC=CCC3)cc2)CCC1","C1=CC(c2ccc(C3CC=CCC3)cc2)CCC1",33.58355902275904,"C1=CC(c2ccc(C3CC=CCC3)cc2)CCC1",5.334000000000004,0,238.172150704,0,0,2,0,0,0,0,18,40,2,3,1,0,2,0,0,0,1,0,2,0.4444444444444444
"A-2244","1-[(E)-2-(2,4-dimethylphenyl)diazen-1-yl]naphthalen-2-ol",-6.7054442976,"Cc1ccc(NN=C2C(=O)C=Cc3ccccc32)c(C)c1","Cc1ccc(NN=C2C(=O)C=Cc3ccccc32)c(C)c1",72.94739093003673,"Cc1ccc(NN=C2C(=O)C=Cc3ccccc23)c(C)c1",3.7155400000000025,41.46,276.12626313199996,3,1,2,1,3,0,3,21,37,0,3,2,0,1,0,0,0,2,0,1,0.1111111111111111
"A-2245","methyl myristate",-6.6497381608,"CCCCCCCCCCCCCC(=O)OC","CCCCCCCCCCCCCC(=O)OC",-11.792245106996166,"CCCCCCCCCCCCCC(=O)OC",4.8605000000000045,26.3,242.2245802,2,0,12,0,2,0,2,17,47,0,0,0,0,0,0,0,0,0,0,0,0.9333333333333333
"A-2246","(4-anilino-1-naphthyl){bis[4-(dimethylamino)phenyl]}methanol",-6.9891355524,"CN(C)c1ccc(C(O)(c2ccc(N(C)C)cc2)c2ccc(Nc3ccccc3)c3ccccc23)cc1","CN(C)c1ccc(C(O)(c2ccc(N(C)C)cc2)c2ccc(Nc3ccccc3)c3ccccc23)cc1",118.2730033751265,"CN(C)c1ccc(C(O)(c2ccc(N(C)C)cc2)c2ccc(Nc3ccccc3)c3ccccc23)cc1",6.999600000000006,38.74,487.262362676,4,2,7,2,4,0,4,37,70,0,5,5,0,0,0,0,0,5,0,0,0.15151515151515152
"A-2248","N-{2-[(2-benzamidophenyl)disulfanyl]phenyl}benzamide",-6.9782870605,"O=C(Nc1ccccc1SSc1ccccc1NC(=O)c1ccccc1)c1ccccc1","O=C(Nc1ccccc1SSc1ccccc1NC(=O)c1ccccc1)c1ccccc1",62.40615178237047,"O=C(Nc1ccccc1SSc1ccccc1NC(=O)c1ccccc1)c1ccccc1",6.990600000000005,58.2,456.09661988,4,2,7,2,4,2,6,32,52,0,4,4,0,0,0,0,0,4,0,0,0
"A-2250","N,N-DIBUTYLDODECANAMIDE",-7.0164120768,"CCCCCCCCCCCC(=O)N(CCCC)CCCC","CCCCCCCCCCCC(=O)N(CCCC)CCCC",-16.16242131794705,"CCCCCCCCCCCC(=O)N(CCCC)CCCC",6.336100000000007,20.310000000000002,311.318814932,2,0,16,0,1,1,2,22,63,0,0,0,0,0,0,0,0,0,0,0,0.95
"A-2251","(2-methoxy-5-nitrophenyl) acetate",-2.9466040673,"COc1ccc([N+](=O)[O-])cc1OC(C)=O","COc1ccc([N+](=O)[O-])cc1OC(C)=O",36.542927784773305,"COc1ccc([N+](=O)[O-])cc1OC(=O)C",1.5286999999999997,78.67000000000002,211.048072388,6,0,3,0,5,0,6,15,24,0,1,1,0,0,0,0,0,1,0,0,0.2222222222222222
"A-2253","4-methylbenzoyl 4-methylbenzene-1-carboperoxoate",-6.798351882,"Cc1ccc(C(=O)OOC(=O)c2ccc(C)cc2)cc1","Cc1ccc(C(=O)OOC(=O)c2ccc(C)cc2)cc1",46.66954289861141,"Cc1ccc(C(=O)OOC(=O)c2ccc(C)cc2)cc1",3.232240000000002,52.6,270.089208928,4,0,2,0,4,0,4,20,34,0,2,2,0,0,0,0,0,2,0,0,0.125
"A-2255","2-cyclohexyl-6-[(3-cyclohexyl-2-hydroxy-5-methylphenyl)methyl]-4-methylphenol",-6.9790342734,"Cc1cc(Cc2cc(C)cc(C3CCCCC3)c2O)c(O)c(C2CCCCC2)c1","Cc1cc(Cc2cc(C)cc(C3CCCCC3)c2O)c(O)c(C2CCCCC2)c1",41.6455567257385,"Cc1cc(Cc2cc(C)cc(C3CCCCC3)c2O)c(O)c(C2CCCCC2)c1",7.400840000000007,40.46,392.271530392,2,2,4,2,2,0,2,29,65,0,4,2,2,2,0,0,0,2,2,2,0.5555555555555556
"A-2257","1,2-bis(2-ethylhexyl) benzene-1,2-dicarboxylate",-6.9789083532,"CCCCC(CC)COC(=O)c1ccccc1C(=O)OCC(CC)CCCC","CCCCC(CC)COC(=O)c1ccccc1C(=O)OCC(CC)CCCC",1.5568490005324662,"CCCCC(CC)COC(=O)c1ccccc1C(=O)OCC(CC)CCCC",6.433000000000007,52.60000000000001,390.277009696,4,0,14,0,4,0,4,28,66,2,1,1,0,0,0,0,0,1,0,0,0.6666666666666666
"A-2258","1,2-bis(propan-2-yl)benzene; 1,3-bis(propan-2-yl)benzene; 1,4-bis(propan-2-yl)benzene",-6.6027992709,"CC(C)c1ccccc1C(C)C","CC(C)c1ccccc1C(C)C",23.043124164502363,"CC(C)c1ccccc1C(C)C",3.9334000000000033,0,162.140850576,0,0,2,0,0,0,0,12,30,0,1,1,0,0,0,0,0,1,0,0,0.5
"A-2259","1,3-diisopropylbenzene",-6.6027992709,"CC(C)c1cccc(C(C)C)c1","CC(C)c1cccc(C(C)C)c1",18.27316202488949,"CC(C)c1cccc(C(C)C)c1",3.9334000000000024,0,162.140850576,0,0,2,0,0,0,0,12,30,0,1,1,0,0,0,0,0,1,0,0,0.5
"A-2260","(Z)-N-(1,3-dihydroxyoctadecan-2-yl)octadec-9-enamide",-6.4517618811,"CCCCCCCCC=CCCCCCCCC(=O)NC(CO)C(O)CCCCCCCCCCCCCCC","CCCCCCCCC=CCCCCCCCC(=O)NC(CO)C(O)CCCCCCCCCCCCCCC",-2.6516475364815326,"CCCCCCCCC=CCCCCCCCC(=O)NC(CO)C(O)CCCCCCCCCCCCCCC",10.343199999999996,69.56,565.5433951319999,4,3,32,3,3,1,4,40,111,2,0,0,0,0,0,0,0,0,0,0,0.9166666666666666
"A-2262","hexadecanoic acid",-6.806908841,"CCCCCCCCCCCCCCCC(=O)[O-]","CCCCCCCCCCCCCCCC(=O)[O-]",2.1475556653718795,"CCCCCCCCCCCCCCCC(=O)[O-]",4.217600000000003,40.129999999999995,255.23295381191002,2,0,14,0,2,0,2,18,49,0,0,0,0,0,0,0,0,0,0,0,0.9375
"A-2264","4,7-Methano-1H-indenol, 3a,4,5,6,7,7a-hexahydro-, acetate",-3.0097265709,"CC(=O)OC1=CCC2C3CCC(C3)C12","CC(=O)OC1=CCC2C3CCC(C3)C12",48.04615711350242,"CC(=O)OC1=CCC2C3CCC(C3)C12",2.4994000000000005,26.3,192.115029752,2,0,1,0,2,0,2,14,30,4,3,0,2,3,0,0,0,0,2,3,0.75
"A-2268","3-octanoyloxypropyl octanoate",-7.5165261194,"CCCCCCCC(=O)OCCCOC(=O)CCCCCCC","CCCCCCCC(=O)OCCCOC(=O)CCCCCCC",-24.56621639924683,"CCCCCCCC(=O)OCCCOC(=O)CCCCCCC",5.183900000000006,52.6,328.261359632,4,0,16,0,4,0,4,23,59,0,0,0,0,0,0,0,0,0,0,0,0.8947368421052632
"A-2269","1-(3,3-dimethylcyclohexyl)pent-4-en-1-one",-4.7793105096,"C=CCCC(=O)C1CCCC(C)(C)C1","C=CCCC(=O)C1CCCC(C)(C)C1",11.883010136004287,"C=CCCC(=O)C1CCCC(C)(C)C1",3.738100000000003,17.07,194.167065324,1,0,4,0,1,0,1,14,36,1,1,0,1,1,0,0,0,0,1,1,0.7692307692307693
"A-2270","9-ethyl-9H-carbazole",-6.813503151,"CCn1c2ccccc2c2ccccc21","CCn1c2ccccc2c2ccccc21",29.09310665796016,"CCn1c2ccccc2c2ccccc12",3.8144000000000027,4.93,195.104799416,1,0,1,0,1,0,1,15,28,0,3,3,0,0,1,0,0,2,0,0,0.14285714285714285
"A-2271","N-ethyl-N-{2-[1-(2-methylpropoxy)ethoxy]ethyl}-4-[(E)-2-phenyldiazen-1-yl]aniline",-7.0905037661,"CCN(CCOC(C)OCC(C)C)c1ccc(N=Nc2ccccc2)cc1","CCN(CCOC(C)OCC(C)C)c1ccc(N=Nc2ccccc2)cc1",70.80021969090159,"CCN(CCOC(C)OCC(C)C)c1ccc(N=Nc2ccccc2)cc1",5.963500000000006,46.42,369.241627232,5,0,11,0,5,0,5,27,58,1,2,2,0,0,0,0,0,2,0,0,0.45454545454545453
"A-2273","3-[(E)-4-[[5,6-di(phenyl)-1,2,4-triazin-3-yl]sulfanyl]but-2-enyl]sulfanyl-5,6-di(phenyl)-1,2,4-triazine",-7.0251255547,"C(=CCSc1nnc(-c2ccccc2)c(-c2ccccc2)n1)CSc1nnc(-c2ccccc2)c(-c2ccccc2)n1","C(=CCSc1nnc(-c2ccccc2)c(-c2ccccc2)n1)CSc1nnc(-c2ccccc2)c(-c2ccccc2)n1",121.1560650493987,"C(=CCSc1nnc(c2ccccc2)c(c2ccccc2)n1)CSc1nnc(c2ccccc2)c(c2ccccc2)n1",8.165200000000006,77.34,582.166036832,6,0,10,0,8,0,8,42,68,0,6,6,0,0,2,0,0,4,0,0,0.058823529411764705
"A-2274","1-(4-tert-butylphenyl)-3-(4-methoxyphenyl)propane-1,3-dione",-7.0605481543,"COc1ccc(C(=O)CC(=O)c2ccc(C(C)(C)C)cc2)cc1","COc1ccc(C(=O)CC(=O)c2ccc(C(C)(C)C)cc2)cc1",38.067896596146646,"COc1ccc(C(=O)CC(=O)c2ccc(C(C)(C)C)cc2)cc1",4.448400000000004,43.370000000000005,310.15689456399997,3,0,5,0,3,0,3,23,45,0,2,2,0,0,0,0,0,2,0,0,0.3
"A-2284","4,11-diamino-2-(3-methoxypropyl)-1H,2H,3H,5H,10H-naphtho[2,3-f]isoindole-1,3,5,10-tetrone",-7.323792769,"COCCCn1c(=O)c2c(N)c3c(=O)c4ccccc4c(=O)c3c(N)c2c1=O","COCCCN1C(=O)c2c(N)c3c(c(N)c2C1=O)C(=O)c1ccccc1C3=O",-14.157187821060614,"COCCCn1c(=O)c2c(N)c3c(c(N)c2c1=O)c(=O)c1ccccc1c3=O",1.2589000000000001,132.79,379.11682064400003,8,4,4,2,7,2,8,28,45,0,4,2,0,2,0,0,1,2,0,1,0.2
"A-2287","docosanoic acid",-7.3281144602,"CCCCCCCCCCCCCCCCCCCCCC(=O)[O-]","CCCCCCCCCCCCCCCCCCCCCC(=O)[O-]",1.6622899304251846,"CCCCCCCCCCCCCCCCCCCCCC(=O)[O-]",6.5582000000000065,40.129999999999995,339.32685419590996,2,0,20,0,2,0,2,24,67,0,0,0,0,0,0,0,0,0,0,0,0.9545454545454546
"A-2288","3-phenylpropyl benzoate",-4.8009737888,"O=C(OCCCc1ccccc1)c1ccccc1","O=C(OCCCc1ccccc1)c1ccccc1",20.348495047251834,"O=C(OCCCc1ccccc1)c1ccccc1",3.476200000000002,26.3,240.115029752,2,0,5,0,2,0,2,18,34,0,2,2,0,0,0,0,0,2,0,0,0.1875
"A-2289","2-methylheptan-1-ol",-2.5281270707,"CCCCCC(C)CO","CCCCCC(C)CO",6.434927572331984,"CCCCCC(C)CO",2.1951000000000005,20.23,130.135765196,1,1,5,1,1,0,1,9,27,1,0,0,0,0,0,0,0,0,0,0,1
"A-2293","3,4,9,10-Perylenetetracarboxylic diimide",-7.591458634,"O=C1NC(=O)c2ccc3c4ccc5c6c(ccc(c7ccc1c2c73)c64)C(=O)NC5=O","O=C1NC(=O)c2ccc3c4ccc5c6c(ccc(c7ccc1c2c73)c64)C(=O)NC5=O",58.65108391568116,"O=c1[nH]c(=O)c2ccc3c4ccc5c6c(ccc(c7ccc1c2c37)c46)c(=O)[nH]c5=O",3.5044000000000013,92.34,390.0640568,6,2,0,2,4,4,6,30,40,0,7,5,0,2,0,0,2,5,0,0,0
"A-2294","1-hydroxy-4-[(4-methylphenyl)amino]-9,10-dihydroanthracene-9,10-dione",-7.5491813124,"Cc1ccc(Nc2ccc([O-])c3c2C(=O)c2ccccc2C3=O)cc1","Cc1ccc(Nc2ccc([O-])c3c2C(=O)c2ccccc2C3=O)cc1",91.02457265493216,"Cc1ccc(Nc2ccc([O-])c3c2C(=O)c2ccccc2C3=O)cc1",3.587620000000001,69.22999999999999,328.09791688790995,4,1,2,1,4,0,4,25,39,0,4,3,0,1,0,0,0,3,0,1,0.047619047619047616
"A-2297","2-ethyl-2-[2-(6-methoxy-3,4-dihydro-2H-naphthalen-1-ylidene)ethyl]cyclopentane-1,3-dione",-4.172504242,"CCC1(CC=C2CCCc3cc(OC)ccc32)C(=O)CCC1=O","CCC1(CC=C2CCCc3cc(OC)ccc32)C(=O)CCC1=O",20.845981678841067,"CCC1(CC=C2CCCc3cc(OC)ccc23)C(=O)CCC1=O",4.1334000000000035,43.370000000000005,312.17254462799997,3,0,4,0,3,0,3,23,47,0,3,1,1,2,0,0,0,1,1,2,0.5
"A-2298","octadecane",-7.6275399492,"CCCCCCCCCCCCCCCCCC","CCCCCCCCCCCCCCCCCC",3.138609358134832,"CCCCCCCCCCCCCCCCCC",7.267800000000007,0,254.29735121599998,0,0,15,0,0,0,0,18,56,0,0,0,0,0,0,0,0,0,0,0,1
"A-2299","8,8-dimethyl-7-propan-2-yl-6,10-dioxaspiro[4.5]decane",-3.5242437705,"CC(C)C1OC2(CCCC2)OCC1(C)C","CC(C)C1OC2(CCCC2)OCC1(C)C",5.647416886934375,"CC(C)C1OC2(CCCC2)OCC1(C)C",3.354300000000002,18.46,212.177630008,2,0,1,0,2,0,2,15,39,1,2,0,2,2,0,1,1,0,1,1,1
"A-2301","2-ethylhexyl 4-({bis[(4-{[(2-ethylhexyl)oxy]carbonyl}phenyl)amino]-1,3,5-triazin-2-yl}amino)benzoate",-8.2164783763,"CCCCC(CC)COC(=O)c1ccc(Nc2nc(Nc3ccc(C(=O)OCC(CC)CCCC)cc3)nc(Nc3ccc(C(=O)OCC(CC)CCCC)cc3)n2)cc1","CCCCC(CC)COC(=O)c1ccc(Nc2nc(Nc3ccc(C(=O)OCC(CC)CCCC)cc3)nc(Nc3ccc(C(=O)OCC(CC)CCCC)cc3)n2)cc1",-83.30965207383308,"CCCCC(CC)COC(=O)c1ccc(Nc2nc(Nc3ccc(C(=O)OCC(CC)CCCC)cc3)nc(Nc3ccc(C(=O)OCC(CC)CCCC)cc3)n2)cc1",12.221999999999984,153.65999999999997,822.504383832,12,3,27,3,12,0,12,60,126,3,4,4,0,0,1,0,0,3,0,0,0.5
"A-2304","methyl palmitate",-7.8300382351,"CCCCCCCCCCCCCCCC(=O)OC","CCCCCCCCCCCCCCCC(=O)OC",-11.995232629800997,"CCCCCCCCCCCCCCCC(=O)OC",5.640700000000005,26.3,270.255880328,2,0,14,0,2,0,2,19,53,0,0,0,0,0,0,0,0,0,0,0,0.9411764705882353
"A-2307","Bis(2-hydroxyethyl) 2-[(6-oxobenzo[c][2,1]benzoxaphosphinin-6-yl)methyl]butanedioate",-4.4617795617,"O=C(CC(CP1(=O)Oc2ccccc2-c2ccccc21)C(=O)OCCO)OCCO","O=C(CC(CP1(=O)Oc2ccccc2-c2ccccc21)C(=O)OCCO)OCCO",-16.3428468076765,"O=C(CC(CP1(=O)Oc2ccccc2c2ccccc12)C(=O)OCCO)OCCO",1.7266999999999997,119.36000000000001,434.1130543259999,8,2,9,2,8,0,9,30,53,2,3,2,0,1,0,0,1,2,0,0,0.3333333333333333
"A-2308","2,2-dimethyl-1,3-dihydroperimidine",-2.9298988951,"CC1(C)Nc2cccc3cccc(c23)N1","CC1(C)Nc2cccc3cccc(c23)N1",31.852788252605123,"CC1(C)Nc2cccc3cccc(c23)N1",3.4133000000000013,24.06,198.115698448,2,2,0,2,2,0,2,15,29,0,3,2,0,1,0,0,1,2,0,0,0.23076923076923078
"A-2312","2-[(4-{[2-(4-cyclohexylphenoxy)ethyl](ethyl)amino}-2-methylphenyl)methylidene]propanedinitrile",-8.3860948559,"CCN(CCOc1ccc(C2CCCCC2)cc1)c1ccc(C=C(C#N)C#N)c(C)c1","CCN(CCOc1ccc(C2CCCCC2)cc1)c1ccc(C=C(C#N)C#N)c(C)c1",68.6862719652334,"CCN(CCOc1ccc(C2CCCCC2)cc1)c1ccc(C=C(C#N)C#N)c(C)c1",6.378580000000007,60.05,413.24671261200007,4,0,8,0,4,0,4,31,62,0,3,2,1,1,0,0,0,2,1,1,0.4074074074074074
"A-2313","2,4-ditert-butyl-6-(3,5-ditert-butyl-2-hydroxyphenyl)phenol",-6.8891874969,"CC(C)(C)c1cc(-c2cc(C(C)(C)C)cc(C(C)(C)C)c2O)c(O)c(C(C)(C)C)c1","CC(C)(C)c1cc(-c2cc(C(C)(C)C)cc(C(C)(C)C)c2O)c(O)c(C(C)(C)C)c1",62.99256046189689,"CC(C)(C)c1cc(c2cc(C(C)(C)C)cc(C(C)(C)C)c2O)c(O)c(C(C)(C)C)c1",7.9548000000000085,40.46,410.31848058399993,2,2,1,2,2,0,2,30,72,0,2,2,0,0,0,0,0,2,0,0,0.5714285714285714
"A-2317","1-[(E)-2-(2-methoxyphenyl)diazen-1-yl]naphthalen-2-ol",-8.9260164319,"COc1ccccc1NN=C1C(=O)C=Cc2ccccc21","COc1ccccc1NN=C1C(=O)C=Cc2ccccc21",92.29621695942816,"COc1ccccc1NN=C1C(=O)C=Cc2ccccc12",3.1073000000000013,50.69,278.105527688,4,1,3,1,4,0,4,21,35,0,3,2,0,1,0,0,0,2,0,1,0.058823529411764705