"ID","Name","Solubility","SMILES Canonical","Smiles (Optimized Geometry)","Energy","Smiles","SlogP","TPSA","ExactMW","NumLipinskiHBA","NumLipinskiHBD","NumRotatableBonds","NumHBD","NumHBA","NumAmideBonds","NumHeteroAtoms","NumHeavyAtoms","NumAtoms","NumStereocenters","NumRings","NumAromaticRings","NumSaturatedRings","NumAliphaticRings","NumAromaticHeterocycles","NumSaturatedHeterocycles","NumAliphaticHeterocycles","NumAromaticCarbocycles","NumSaturatedCarbocycles","NumAliphaticCarbocycles","FractionCSP3"
"B-724","succinyl peroxide",-0.8471,"O=C([O-])CCC(=O)OOC(=O)CCC(=O)[O-]","O=C([O-])CCC(=O)OOC(=O)CCC(=O)[O-]",16.337471946311098,"O=C([O-])CCC(=O)OOC(=O)CCC(=O)[O-]",-2.951999999999999,132.85999999999999,232.02301437582003,8,0,6,0,8,0,8,16,24,0,0,0,0,0,0,0,0,0,0,0,0.5
"B-725","ethyl nonanoate",-3.8007,"CCCCCCCCC(=O)OCC","CCCCCCCCC(=O)OCC",-11.426538848046109,"CCCCCCCCC(=O)OCC",3.3001000000000023,26.3,186.161979944,2,0,8,0,2,0,2,13,35,0,0,0,0,0,0,0,0,0,0,0,0.9090909090909091
"B-726","3-methylene-7-methyl-1,6-octadiene  (myrcene)",-4.3861,"C=CC(=C)CCC=C(C)C","C=CC(=C)CCC=C(C)C",5.898878499261221,"C=CC(=C)CCC=C(C)C",3.4750000000000023,0,136.125200512,0,0,4,0,0,0,0,10,26,0,0,0,0,0,0,0,0,0,0,0,0.4
"B-728","4-hydroxy-4-methyl-2-pentanone",0.9349,"CC(=O)CC(C)(C)O","CC(=O)CC(C)(C)O",-6.055692753887607,"CC(=O)CC(C)(C)O",0.7363999999999999,37.3,116.083729624,2,1,2,1,2,0,2,8,20,0,0,0,0,0,0,0,0,0,0,0,0.8333333333333334
"B-731","dioctyl adipate",-5.6768,"CCCCCCCCOC(=O)CCCCC(=O)OCCCCCCCC","CCCCCCCCOC(=O)CCCCC(=O)OCCCCCCCC",-20.250278999163953,"CCCCCCCCOC(=O)CCCCC(=O)OCCCCCCCC",6.354200000000008,52.60000000000001,370.308309824,4,0,19,0,4,0,4,26,68,0,0,0,0,0,0,0,0,0,0,0,0.9090909090909091
"B-732","1-[(2-aminoethyl)amino]-2-propanol",0.9275,"CC(O)C[NH2+]CCN","CC(O)C[NH2+]CCN",-4.906914251940628,"CC(O)C[NH2+]CCN",-2.1106999999999987,62.86,119.11788952008999,3,5,4,3,2,0,3,8,23,1,0,0,0,0,0,0,0,0,0,0,1
"B-734","isoamyl acetate",-1.8135,"CC(=O)OCCC(C)C","CC(=O)OCCC(C)C",-8.606624468753676,"CC(=O)OCCC(C)C",1.5956000000000001,26.3,130.099379688,2,0,3,0,2,0,2,9,23,0,0,0,0,0,0,0,0,0,0,0,0.8571428571428571
"B-735","acetic acid, 2,2'-thiobis-",0.4255,"O=C([O-])CSCC(=O)[O-]","O=C([O-])CSCC(=O)[O-]",143.63568736622696,"O=C([O-])CSCC(=O)[O-]",-2.7805999999999997,80.25999999999999,147.98412676782002,4,0,4,0,5,0,5,9,13,0,0,0,0,0,0,0,0,0,0,0,0.5
"B-736","octanal",-2.3598,"CCCCCCCC=O","CCCCCCCC=O",-0.5463428720006159,"CCCCCCCC=O",2.5458000000000007,17.07,128.120115132,1,0,6,0,1,0,1,9,25,0,0,0,0,0,0,0,0,0,0,0,0.875
"B-737","diethylene glycol monobutyl ether acetate",-0.8188,"CCCCOCCOCCOC(C)=O","CCCCOCCOCCOC(C)=O",19.671191118033395,"CCCCOCCOCCOC(=O)C",1.3828,44.760000000000005,204.13615912,4,0,9,0,4,0,4,14,34,0,0,0,0,0,0,0,0,0,0,0,0.9
"B-738","n-decane",-6.4372,"CCCCCCCCCC","CCCCCCCCCC",-0.658217162619946,"CCCCCCCCCC",4.147000000000004,0,142.172150704,0,0,7,0,0,0,0,10,32,0,0,0,0,0,0,0,0,0,0,0,1
"B-740","n-dodecylamine",-3.3759,"CCCCCCCCCCCC[NH3+]","CCCCCCCCCCCC[NH3+]",-0.9646199689435206,"CCCCCCCCCCCC[NH3+]",3.1492000000000004,27.64,186.22162631609,1,3,10,1,0,0,1,13,41,0,0,0,0,0,0,0,0,0,0,0,1
"B-746","camphoric acid",-1.4207,"CC1(C)[C@@H](C(=O)[O-])CC[C@@]1(C)C(=O)[O-]","CC1(C)[C@@H](C(=O)[O-])CC[C@@]1(C)C(=O)[O-]",86.16931150149384,"CC1(C)[C@@H](C(=O)[O-])CC[C@@]1(C)C(=O)[O-]",-1.071299999999999,80.25999999999999,198.09030608782,4,0,2,0,4,0,4,14,28,2,1,0,1,1,0,0,0,0,1,1,0.8
"B-749","sucrose octaacetate",-2.8726,"CC(=O)OC[C@H]1O[C@H](O[C@]2(COC(C)=O)O[C@H](COC(C)=O)[C@@H](OC(C)=O)[C@@H]2OC(C)=O)[C@H](OC(C)=O)[C@@H](OC(C)=O)[C@@H]1OC(C)=O","CC(=O)OC[C@H]1O[C@H](O[C@]2(COC(C)=O)O[C@H](COC(C)=O)[C@@H](OC(C)=O)[C@@H]2OC(C)=O)[C@H](OC(C)=O)[C@@H](OC(C)=O)[C@@H]1OC(C)=O",-21.522761657042796,"CC(=O)OC[C@H]1O[C@H](O[C@]2(COC(=O)C)O[C@H](COC(=O)C)[C@@H](OC(=O)C)[C@@H]2OC(=O)C)[C@H](OC(=O)C)[C@@H](OC(=O)C)[C@@H]1OC(=O)C",-0.8291999999999908,238.08999999999995,678.2007289960001,19,0,13,0,19,0,19,47,85,9,2,0,2,2,0,2,2,0,0,0,0.7142857142857143
"B-750","cyclohexanol, 1-ethynyl-, carbamate",-1.8253,"C#CC1(OC(N)=O)CCCCC1","C#CC1(OC(N)=O)CCCCC1",-8.913789893935169,"C#CC1(OC(=O)N)CCCCC1",1.4178000000000002,52.32,167.094628656,3,2,1,1,2,1,3,12,25,0,1,0,1,1,0,0,0,0,1,1,0.6666666666666666
"B-751","dipentaerythritol",-1.9582,"OCC(CO)(CO)COCC(CO)(CO)CO","OCC(CO)(CO)COCC(CO)(CO)CO",-29.993524916753984,"OCC(CO)(CO)COCC(CO)(CO)CO",-3.070399999999999,130.61,254.136553044,7,6,10,6,7,0,7,17,39,0,0,0,0,0,0,0,0,0,0,0,1
"B-753","demeton-s",-2.1112,"CCOP(=O)(OCC)SCCSCC","CCOP(=O)(OCC)SCCSCC",-75.10154588341665,"CCOP(=O)(OCC)SCCSCC",3.653800000000002,35.53,258.051323098,3,0,9,0,5,0,6,14,33,0,0,0,0,0,0,0,0,0,0,0,1
"B-754","5,5-dimethyl-1,3-cyclohexanedione",-1.5276,"CC1(C)CC(=O)CC(=O)C1","CC1(C)CC(=O)CC(=O)C1",-3.4364446152392465,"CC1(C)CC(=O)CC(=O)C1",1.3347,34.14,140.083729624,2,0,0,0,2,0,2,10,22,0,1,0,1,1,0,0,0,0,1,1,0.75
"B-755","oxanamide",-1.1745,"CCCC1OC1(CC)C(N)=O","CCCC1OC1(CC)C(N)=O",11.867336148488693,"CCCC1OC1(CC)C(=O)N",0.8193999999999999,55.62,157.11027872,3,2,4,1,2,1,3,11,26,2,1,0,1,1,0,1,1,0,0,0,0.875
"B-759","trimethadione",-0.4568,"CN1C(=O)OC(C)(C)C1=O","CN1C(=O)OC(C)(C)C1=O",-47.96214692686823,"CN1C(=O)OC(C)(C)C1=O",0.37359999999999993,46.61,143.058243148,4,0,0,0,3,2,4,10,19,0,1,0,1,1,0,1,1,0,0,0,0.6666666666666666
"B-760","benzamide, n- (4-aminophenyl)sulfonyl -",-2.9501,"Nc1ccc(S(=O)(=O)NC(=O)c2ccccc2)cc1","Nc1ccc(S(=O)(=O)NC(=O)c2ccccc2)cc1",-36.61834553960474,"Nc1ccc(S(=O)(=O)NC(=O)c2ccccc2)cc1",1.3875,89.25999999999999,276.056863244,5,3,3,2,4,1,6,19,31,0,2,2,0,0,0,0,0,2,0,0,0
"B-768","noscapine",-3.1393,"COc1ccc2c(c1OC)C(=O)O[C@@H]2[C@H]1c2c(cc3c(c2OC)OCO3)CC[NH+]1C","COc1ccc2c(c1OC)C(=O)O[C@@H]2[C@H]1c2c(cc3c(c2OC)OCO3)CC[NH+]1C",90.35409110440993,"COc1ccc2c(c1OC)C(=O)O[C@@H]2[C@H]1c2c(cc3c(c2OC)OCO3)CC[NH+]1C",1.4646999999999994,76.89000000000001,414.15472852808995,8,1,4,1,7,0,8,30,54,3,5,2,0,3,0,0,3,2,0,0,0.4090909090909091
"B-769","1-hydroxyanthraquinone",-4.4213,"O=C1c2ccccc2C(=O)c2c([O-])cccc21","O=C1c2ccccc2C(=O)c2c([O-])cccc21",65.31570091607101,"O=C1c2ccccc2C(=O)c2c([O-])cccc12",1.5355999999999996,57.2,223.04006766391,3,0,0,0,3,0,3,17,24,0,3,2,0,1,0,0,0,2,0,1,0
"B-770","2,4,6-trinitrobenzoic acid",-1.0977,"O=C([O-])c1c([N+](=O)[O-])cc([N+](=O)[O-])cc1[N+](=O)[O-]","O=C([O-])c1c([N+](=O)[O-])cc([N+](=O)[O-])cc1[N+](=O)[O-]",-7.607521876895362,"O=C([O-])c1c([N+](=O)[O-])cc([N+](=O)[O-])cc1[N+](=O)[O-]",-0.22529999999999994,169.54999999999998,255.98473760391002,11,0,4,0,8,0,11,18,20,0,1,1,0,0,0,0,0,1,0,0,0
"B-772","2-cyclohexyl-4,6-dinitrophenol",-4.2492,"O=[N+]([O-])c1cc(C2CCCCC2)c([O-])c([N+](=O)[O-])c1","O=[N+]([O-])c1cc(C2CCCCC2)c([O-])c([N+](=O)[O-])c1",70.67484692752463,"O=[N+]([O-])c1cc(C2CCCCC2)c([O-])c([N+](=O)[O-])c1",2.6243000000000007,109.34,265.08299509591,7,0,3,0,5,0,7,19,32,0,2,1,1,1,0,0,0,1,1,1,0.5
"B-773","2-phenylcinchoninic acid",-3.1926,"O=C([O-])c1cc(-c2ccccc2)nc2ccccc12","O=C([O-])c1cc(-c2ccccc2)nc2ccccc12",48.13586540498742,"O=C([O-])c1cc(c2ccccc2)nc2ccccc12",2.2653,53.019999999999996,248.07170213991,3,0,2,0,3,0,3,19,29,0,3,3,0,0,1,0,0,2,0,0,0
"B-774","npa (naptalam)",-3.1633,"O=C([O-])c1ccccc1C(=O)Nc1cccc2ccccc12","O=C([O-])c1ccccc1C(=O)Nc1cccc2ccccc12",49.265516544102155,"O=C([O-])c1ccccc1C(=O)Nc1cccc2ccccc12",2.4556000000000004,69.22999999999999,290.08226682391,4,1,3,1,3,1,4,22,34,0,3,3,0,0,0,0,0,3,0,0,0
"B-775","naphthalene-1,3-diol",-1.9493,"Oc1cc(O)c2ccccc2c1","Oc1cc(O)c2ccccc2c1",27.107222516779892,"Oc1cc(O)c2ccccc2c1",2.2509999999999994,40.46,160.052429496,2,2,0,2,2,0,2,12,20,0,2,2,0,0,0,0,0,2,0,0,0
"B-778","3-indolebutyric acid",-2.9101,"O=C([O-])CCCc1c[nH]c2ccccc12","O=C([O-])CCCc1c[nH]c2ccccc12",15.160914741715132,"O=C([O-])CCCc1c[nH]c2ccccc12",1.2404999999999995,55.919999999999995,202.08735220391,3,1,4,1,2,0,3,15,27,0,2,2,0,0,1,0,0,1,0,0,0.25
"B-783","benzoic acid, 2-(acetyloxy)-, phenyl ester",-4.1077,"CC(=O)Oc1ccccc1C(=O)Oc1ccccc1","CC(=O)Oc1ccccc1C(=O)Oc1ccccc1",51.58494974789653,"CC(=O)Oc1ccccc1C(=O)Oc1ccccc1",2.831100000000001,52.60000000000001,256.073558864,4,0,3,0,4,0,4,19,31,0,2,2,0,0,0,0,0,2,0,0,0.06666666666666667
"B-786","1,3-diphenyl-1-triazene",-2.596,"c1ccc(N=NNc2ccccc2)cc1","c1ccc(N=NNc2ccccc2)cc1",33.235877475877,"c1ccc(N=NNc2ccccc2)cc1",3.7974000000000014,36.75,197.095297352,3,1,3,1,2,0,3,15,26,0,2,2,0,0,0,0,0,2,0,0,0
"B-787","benzenamine, 2-ethoxy-5-nitro-",-3.2113,"CCOc1ccc([N+](=O)[O-])cc1N","CCOc1ccc([N+](=O)[O-])cc1N",29.813395502309724,"CCOc1ccc([N+](=O)[O-])cc1N",1.5756999999999999,78.39,182.06914218,5,2,3,1,4,0,5,13,23,0,1,1,0,0,0,0,0,1,0,0,0.25
"B-788","2,4,5-trimethylaniline",-1.9549,"Cc1cc(C)c(N)cc1C","Cc1cc(C)c(N)cc1C",15.03993622636905,"Cc1cc(C)c(N)cc1C",2.1940600000000003,26.02,135.104799416,1,2,0,1,1,0,1,10,23,0,1,1,0,0,0,0,0,1,0,0,0.3333333333333333
"B-792","butyl lactate",-0.5629,"CCCCOC(=O)C(C)O","CCCCOC(=O)C(C)O",12.07073230988754,"CCCCOC(=O)C(C)O",0.7104999999999999,46.53,146.094294308,3,1,4,1,3,0,3,10,24,1,0,0,0,0,0,0,0,0,0,0,0.8571428571428571
"B-793","benzenesulfonic acid, 3-hydrazino-",-0.8275,"NNc1cccc(S(=O)(=O)[O-])c1","NNc1cccc(S(=O)(=O)[O-])c1",15.53865962307852,"NNc1cccc(S(=O)(=O)[O-])c1",-0.1236999999999997,95.25,187.01828666391,5,3,2,2,5,0,6,12,19,0,1,1,0,0,0,0,0,1,0,0,0
"B-794","benzenesulfonamide, 4-(aminomethyl)-",0.321,"NS(=O)(=O)c1ccc(C[NH3+])cc1","NS(=O)(=O)c1ccc(C[NH3+])cc1",15.582360883722199,"NS(=O)(=O)c1ccc(C[NH3+])cc1",-0.9240999999999993,87.80000000000001,187.05357501209,4,5,2,2,2,0,5,12,23,0,1,1,0,0,0,0,0,1,0,0,0.14285714285714285
"B-798","nitrilotriacetic acid",-0.5101,"O=C([O-])C[NH+](CC(=O)[O-])CC(=O)[O-]","O=C([O-])C[NH+](CC(=O)[O-])CC(=O)[O-]",130.29190823794414,"O=C([O-])C[NH+](CC(=O)[O-])CC(=O)[O-]",-6.878999999999998,124.82999999999998,189.02843410382002,7,1,6,1,6,0,7,13,20,0,0,0,0,0,0,0,0,0,0,0,0.5
"B-799","3,4-dihydroxybenzaldehyde",-1.3402,"O=Cc1ccc(O)c(O)c1","O=Cc1ccc(O)c(O)c1",16.237746843535593,"O=Cc1ccc(O)c(O)c1",0.9102999999999999,57.53,138.031694052,3,2,1,2,3,0,3,10,16,0,1,1,0,0,0,0,0,1,0,0,0
"B-800","2-thiophenepropanoic acid, .alpha.-amino-",-0.8356,"[NH3+]C(Cc1cccs1)C(=O)[O-]","[NH3+]C(Cc1cccs1)C(=O)[O-]",-85.2644497985176,"[NH3+]C(Cc1cccs1)C(=O)[O-]",-1.3490000000000006,67.77,171.035399528,3,3,3,1,3,0,4,11,20,1,1,1,0,0,1,0,0,0,0,0,0.2857142857142857
"B-801","ethanol, 2,2'-(ethylimino)bis-",0.8755,"CC[NH+](CCO)CCO","CC[NH+](CCO)CCO",15.483145286428227,"CC[NH+](CCO)CCO",-2.1241999999999983,44.900000000000006,134.11755517209,3,3,5,3,2,0,3,9,25,0,0,0,0,0,0,0,0,0,0,0,1
"B-802","furaltadone",-2.6359,"O=C1OC(C[NH+]2CCOCC2)CN1N=Cc1ccc([N+](=O)[O-])o1","O=C1OC(C[NH+]2CCOCC2)CN1N=Cc1ccc([N+](=O)[O-])o1",131.6970954202118,"O=C1OC(C[NH+]2CCOCC2)CN1N=Cc1ccc([N+](=O)[O-])o1",-0.742399999999998,111.85000000000001,325.11426068408997,10,1,5,1,7,1,10,23,40,1,3,1,2,2,1,2,2,0,0,0,0.5384615384615384
"B-803","nithiazide",-2.8578,"CCNC(=O)Nc1ncc([N+](=O)[O-])s1","CCNC(=O)Nc1ncc([N+](=O)[O-])s1",-30.858053977051867,"CCNC(=O)Nc1ncc([N+](=O)[O-])s1",1.1927,97.16,216.031711116,7,2,3,2,5,2,8,14,22,0,1,1,0,0,1,0,0,0,0,0,0.3333333333333333
"B-804","1,2-ethanediamine, n,n'-bis(phenylmethyl)-",-1.7865,"c1ccc(CNCC[NH2+]Cc2ccccc2)cc1","c1ccc(CNCC[NH2+]Cc2ccccc2)cc1",20.258544478782074,"c1ccc(CNCC[NH2+]Cc2ccccc2)cc1",1.5397999999999996,28.64,241.16992509208998,2,3,7,2,1,0,2,18,39,0,2,2,0,0,0,0,0,2,0,0,0.25
"B-807","benzene, 1-methoxy-4-(2-propenyl)-",-2.9209,"C=CCc1ccc(OC)cc1","C=CCc1ccc(OC)cc1",20.62670774679632,"C=CCc1ccc(OC)cc1",2.4237,9.23,148.088815004,1,0,3,0,1,0,1,11,23,0,1,1,0,0,0,0,0,1,0,0,0.2
"B-808","cyclopentylproprionic acid",-1.7691,"O=C([O-])CCC1CCCC1","O=C([O-])CCC1CCCC1",12.323867398741443,"O=C([O-])CCC1CCCC1",0.7066999999999996,40.129999999999995,141.09210323591,2,0,3,0,2,0,2,10,23,0,1,0,1,1,0,0,0,0,1,1,0.875
"B-810","butanedioic acid, dibutyl ester",-3.0006,"CCCCOC(=O)CCC(=O)OCCCC","CCCCOC(=O)CCC(=O)OCCCC",-38.75280908067629,"CCCCOC(=O)CCC(=O)OCCCC",2.4532000000000007,52.60000000000001,230.151809184,4,0,9,0,4,0,4,16,38,0,0,0,0,0,0,0,0,0,0,0,0.8333333333333334
"B-811","diethyl maleate",-1.0899,"CCOC(=O)C=CC(=O)OCC","CCOC(=O)C=CC(=O)OCC",-27.87022297308974,"CCOC(=O)C=CC(=O)OCC",0.6688,52.60000000000001,172.073558864,4,0,4,0,4,0,4,12,24,0,0,0,0,0,0,0,0,0,0,0,0.5
"B-812","diethylhexanedioate",-1.6795,"CCOC(=O)CCCCC(=O)OCC","CCOC(=O)CCCCC(=O)OCC",-22.05237927337197,"CCOC(=O)CCCCC(=O)OCC",1.673,52.60000000000001,202.120509056,4,0,7,0,4,0,4,14,32,0,0,0,0,0,0,0,0,0,0,0,0.8
"B-816","dicrotophos",0.6249,"COP(=O)(OC)OC(C)=CC(=O)N(C)C","COP(=O)(OC)OC(C)=CC(=O)N(C)C",-56.886789474818606,"COP(=O)(OC)OC(=CC(=O)N(C)C)C",1.3959,65.07000000000001,237.07660924200002,6,0,5,0,5,1,7,15,31,0,0,0,0,0,0,0,0,0,0,0,0.625
"B-821","2-thiouracil",-2.2573,"O=c1cc[nH]c(=S)[nH]1","O=C1C=CNC(=S)N1",-17.842263314444647,"O=c1cc[nH]c(=S)[nH]1",-0.4956,41.13,128.004433748,3,2,0,2,2,1,4,8,12,0,1,0,0,1,0,0,1,0,0,0,0
"B-823","acetamide, n-(2-hydroxyethyl)-",0.9867,"CC(=O)NCCO","CC(=O)NCCO",-8.578618012380696,"CC(=O)NCCO",-0.8852,49.33,103.063328528,3,2,2,2,2,1,3,7,16,0,0,0,0,0,0,0,0,0,0,0,0.75
"B-825","1,2-hydrazinecarbothioamide",-1.7965,"NC(=S)NNC(N)=S","NC(=S)NNC(N)=S",9.213976826483169,"NC(=S)NNC(=S)N",-1.4322,76.1,150.003388192,4,6,0,4,2,0,6,8,14,0,0,0,0,0,0,0,0,0,0,0,0
"B-829","n-hexyl acetate",-2.451,"CCCCCCOC(C)=O","CCCCCCOC(C)=O",-10.22100585139617,"CCCCCCOC(=O)C",2.1298000000000004,26.3,144.115029752,2,0,5,0,2,0,2,10,26,0,0,0,0,0,0,0,0,0,0,0,0.875
"B-831","1-hexanamine, n-hexyl-",-3.1574,"CCCCCC[NH2+]CCCCCC","CCCCCC[NH2+]CCCCCC",0.7417360026850631,"CCCCCC[NH2+]CCCCCC",2.710400000000001,16.61,186.22162631609,1,2,10,1,0,0,1,13,41,0,0,0,0,0,0,0,0,0,0,0,1
"B-832","triethylene glycol butyl ether",0.6855,"CCCCOCCOCCOCCO","CCCCOCCOCCOCCO",51.796155179655706,"CCCCOCCOCCOCCO",0.8286,47.92,206.151809184,4,1,11,1,4,0,4,14,36,0,0,0,0,0,0,0,0,0,0,0,1
"B-835","1,3-dioxolane-4,4-diacetic acid, 5-oxo-",-0.611,"O=C([O-])CC1(CC(=O)[O-])OCOC1=O","O=C([O-])CC1(CC(=O)[O-])OCOC1=O",15.698652948700143,"O=C([O-])CC1(CC(=O)[O-])OCOC1=O",-3.463899999999998,115.78999999999999,202.01244969182002,7,0,4,0,7,0,7,14,20,0,1,0,1,1,0,1,1,0,0,0,0.5714285714285714
"B-841","dl-allothreonine",0.067,"CC(O)C([NH3+])C(=O)[O-]","CC(O)C([NH3+])C(=O)[O-]",-95.24434079707498,"CC(O)C([NH3+])C(=O)[O-]",-3.2723999999999984,88,119.058243148,4,4,2,2,3,0,4,8,17,2,0,0,0,0,0,0,0,0,0,0,0.75
"B-845","benzamide, 2-methyl-3,5-dinitro-",-2.3525,"Cc1c(C(N)=O)cc([N+](=O)[O-])cc1[N+](=O)[O-]","Cc1c(C(N)=O)cc([N+](=O)[O-])cc1[N+](=O)[O-]",49.26274841944411,"Cc1c(C(=O)N)cc([N+](=O)[O-])cc1[N+](=O)[O-]",0.91032,129.37,225.038570324,8,2,3,1,5,1,8,16,23,0,1,1,0,0,0,0,0,1,0,0,0.125
"B-846","flumethazide",-0.8186,"NS(=O)(=O)c1cc2c(cc1C(F)(F)F)NC=NS2(=O)=O","NS(=O)(=O)c1cc2c(cc1C(F)(F)F)NC=NS2(=O)=O",-58.37191988493292,"NS(=O)(=O)c1cc2c(cc1C(F)(F)F)NC=NS2(=O)=O",0.49530000000000046,118.69,328.975182332,7,3,1,2,5,0,12,20,26,0,2,1,0,1,0,0,1,1,0,0,0.125
"B-847","thiabendazole",-3.6048,"c1ccc2[nH]c(-c3cscn3)nc2c1","c1ccc2[nH]c(-c3cscn3)nc2c1",20.37365410610218,"c1ccc2[nH]c(c3cscn3)nc2c1",2.6864,41.57,201.036068224,3,1,1,1,3,0,4,14,21,0,3,3,0,0,2,0,0,1,0,0,0
"B-849","3,4,5-trihydroxybenzoic acid",-1.1552,"O=C([O-])c1cc(O)c(O)c(O)c1","O=C([O-])c1cc(O)c(O)c(O)c1",17.96378345522312,"O=C([O-])c1cc(O)c(O)c(O)c1",-0.8331000000000002,100.82000000000001,169.01424683991002,5,3,1,3,5,0,5,12,17,0,1,1,0,0,0,0,0,1,0,0,0
"B-850","dulcin",-2.173,"CCOc1ccc(NC(N)=O)cc1","CCOc1ccc(NC(N)=O)cc1",19.543103716070082,"CCOc1ccc(NC(=O)N)cc1",1.5758999999999999,64.35,180.089877624,4,3,3,2,2,2,4,13,25,0,1,1,0,0,0,0,0,1,0,0,0.2222222222222222
"B-854","octamethylpyrophosphoramide",0.5433,"CN(C)P(=O)(OP(=O)(N(C)C)N(C)C)N(C)C","CN(C)P(=O)(OP(=O)(N(C)C)N(C)C)N(C)C",-349.7387367219921,"CN(C)P(=O)(OP(=O)(N(C)C)N(C)C)N(C)C",1.4655999999999998,56.330000000000005,286.132363888,7,0,6,0,3,0,9,17,41,0,0,0,0,0,0,0,0,0,0,0,1
"B-858","1,6-dioxaspiro[4,4]nonane",-0.1078,"C1COC2(C1)CCCO2","C1COC2(C1)CCCO2",-10.189998637092556,"C1COC2(C1)CCCO2",1.3035,18.46,128.083729624,2,0,0,0,2,0,2,9,21,0,2,0,2,2,0,2,2,0,0,0,1
"B-861","indeno(1,2,3-cd)pyrene",-9.1627,"c1ccc2c(c1)-c1ccc3ccc4cccc5cc-2c1c3c45","c1ccc2c(c1)-c1ccc3ccc4cccc5cc-2c1c3c45",93.69014837826565,"c1ccc2c(c1)c1ccc3ccc4cccc5cc2c1c3c45",6.2314000000000025,0,276.093900384,0,0,0,0,0,0,0,22,34,0,6,5,0,1,0,0,0,5,0,1,0
"B-862","7h-dibenzo(c,g)carbazole",-6.6277,"c1ccc2c(c1)ccc1[nH]c3ccc4ccccc4c3c12","c1ccc2c(c1)ccc1[nH]c3ccc4ccccc4c3c12",57.24928703227394,"c1ccc2c(c1)ccc1[nH]c3ccc4ccccc4c3c21",5.627500000000003,15.79,267.104799416,1,1,0,1,0,0,1,21,34,0,5,5,0,0,1,0,0,4,0,0,0
"B-863","benzo(c)phenanthrene",-7.8207,"c1ccc2c(c1)ccc1ccc3ccccc3c12","c1ccc2c(c1)ccc1ccc3ccccc3c12",58.38317891615926,"c1ccc2c(c1)ccc1ccc3ccccc3c21",5.146200000000003,0,228.093900384,0,0,0,0,0,0,0,18,30,0,4,4,0,0,0,0,0,4,0,0,0
"B-864","benz(a,j)aceanthrylene",-8.4806,"c1ccc2c(c1)-c1cccc3cc4c(ccc5ccccc54)c-2c13","c1ccc2c(c1)-c1cccc3cc4c(ccc5ccccc54)c-2c13",97.26026358288249,"c1ccc2c(c1)c1cccc3cc4c(ccc5ccccc45)c2c13",6.793600000000003,0,302.109550448,0,0,0,0,0,0,0,24,38,0,6,5,0,1,0,0,0,5,0,1,0
"B-865","4,5-methylenephenanthrene",-5.2379,"c1cc2c3c(c1)ccc1cccc(c13)C2","c1cc2c3c(c1)ccc1cccc(c13)C2",59.746771476144545,"c1cc2c3c(c1)ccc1cccc(c31)C2",3.8972000000000016,0,190.07825032,0,0,0,0,0,0,0,15,25,0,4,3,0,1,0,0,0,3,0,1,0.06666666666666667
"B-866","benzo(j)fluoranthene",-8.004,"c1ccc2c3c(ccc2c1)-c1cccc2cccc-3c12","c1ccc2c3c(ccc2c1)-c1cccc2cccc-3c12",82.28331956597339,"c1ccc2c3c(ccc2c1)c1cccc2cccc3c12",5.640400000000003,0,252.093900384,0,0,0,0,0,0,0,20,32,0,5,4,0,1,0,0,0,4,0,1,0
"B-867","benzo(b)fluoranthene",-8.2259,"c1ccc2c(c1)-c1cccc3c1c-2cc1ccccc13","c1ccc2c(c1)-c1cccc3c1c-2cc1ccccc13",82.26750076005106,"c1ccc2c(c1)c1cccc3c1c2cc1ccccc31",5.640400000000003,0,252.093900384,0,0,0,0,0,0,0,20,32,0,5,4,0,1,0,0,0,4,0,1,0
"B-868","benzo(k)fluoranthene",-8.4989,"c1ccc2cc3c(cc2c1)-c1cccc2cccc-3c12","c1ccc2cc3c(cc2c1)-c1cccc2cccc-3c12",80.79556320683204,"c1ccc2cc3c(cc2c1)c1cccc2cccc3c12",5.640400000000003,0,252.093900384,0,0,0,0,0,0,0,20,32,0,5,4,0,1,0,0,0,4,0,1,0
"B-870","14h-dibenzo[a,j]phenothiazine",-7.9081,"c1ccc2c3c(ccc2c1)Sc1ccc2ccccc2c1N3","c1ccc2c3c(ccc2c1)Sc1ccc2ccccc2c1N3",67.02210191924769,"c1ccc2c3c(ccc2c1)Sc1ccc2ccccc2c1N3",6.201200000000003,12.03,299.0768704160001,1,1,0,1,2,0,2,22,35,0,5,4,0,1,0,0,1,4,0,0,0
"B-871","7h-dibenzo[c,h]phenothiazine",-6.8786,"c1ccc2c3c(ccc2c1)Nc1ccc2ccccc2c1S3","c1ccc2c3c(ccc2c1)Nc1ccc2ccccc2c1S3",70.31731200198021,"c1ccc2c3c(ccc2c1)Nc1ccc2ccccc2c1S3",6.201200000000003,12.03,299.076870416,1,1,0,1,2,0,2,22,35,0,5,4,0,1,0,0,1,4,0,0,0
"B-872","12h-benzo[c]phenothiazine",-5.8957,"c1ccc2c(c1)Nc1c(ccc3ccccc13)S2","c1ccc2c(c1)Nc1c(ccc3ccccc13)S2",52.41701137403519,"c1ccc2c(c1)Nc1c(ccc3ccccc13)S2",5.048000000000002,12.03,249.061220352,1,1,0,1,2,0,2,18,29,0,4,3,0,1,0,0,1,3,0,0,0
"B-873","7h-benzo[c]phenothiazine",-6.5727,"c1ccc2c(c1)Nc1ccc3ccccc3c1S2","c1ccc2c(c1)Nc1ccc3ccccc3c1S2",54.03833002223433,"c1ccc2c(c1)Nc1ccc3ccccc3c1S2",5.048000000000002,12.03,249.061220352,1,1,0,1,2,0,2,18,29,0,4,3,0,1,0,0,1,3,0,0,0
"B-874","dibenz(a,h)acridine",-6.2447,"c1ccc2c(c1)ccc1nc3c(ccc4ccccc43)cc12","c1ccc2c(c1)ccc1nc3c(ccc4ccccc43)cc12",69.67335457759367,"c1ccc2c(c1)ccc1nc3c(ccc4ccccc34)cc21",5.6944000000000035,12.89,279.104799416,1,0,0,0,1,0,1,22,35,0,5,5,0,0,1,0,0,4,0,0,0
"B-875","phenanthridine",-2.7763,"c1ccc2c(c1)cnc1ccccc12","c1ccc2c(c1)cnc1ccccc12",42.0105279328532,"c1ccc2c(c1)cnc1ccccc21",3.388000000000001,12.89,179.073499288,1,0,0,0,1,0,1,14,23,0,3,3,0,0,1,0,0,2,0,0,0
"B-876","1h-1,2,3-triazolo[4,5-d]pyrimidine",-0.2319,"c1ncc2n[nH]nc2n1","c1ncc2n[nH]nc2n1",-13.947938916997177,"c1ncc2n[nH]nc2n1",-0.25210000000000016,67.35,121.03884509599999,5,1,0,1,4,0,5,9,12,0,2,2,0,0,2,0,0,0,0,0,0
"B-877","1,4-diazabicyclo(2,2,2)octane  (dabco)",0.6033,"C1C[NH+]2CCN1CC2","C1C[NH+]2CCN1CC2",129.4171212027079,"C1C[NH+]2CCN1CC2",-1.7994999999999979,7.680000000000001,113.10732483608999,2,1,0,1,1,0,2,8,21,0,3,0,3,3,0,3,3,0,0,0,1