"ID","Name","Solubility","SMILES Canonical","Smiles (Optimized Geometry)","Energy","Smiles","SlogP","TPSA","ExactMW","NumLipinskiHBA","NumLipinskiHBD","NumRotatableBonds","NumHBD","NumHBA","NumAmideBonds","NumHeteroAtoms","NumHeavyAtoms","NumAtoms","NumStereocenters","NumRings","NumAromaticRings","NumSaturatedRings","NumAliphaticRings","NumAromaticHeterocycles","NumSaturatedHeterocycles","NumAliphaticHeterocycles","NumAromaticCarbocycles","NumSaturatedCarbocycles","NumAliphaticCarbocycles","FractionCSP3"
"A-4984","(4-nonylphenoxy)acetic acid",-3.8425967597,"CCCCCCCCCc1ccc(OCC(=O)[O-])cc1","CCCCCCCCCc1ccc(OCC(=O)[O-])cc1",68.53083183437731,"CCCCCCCCCc1ccc(OCC(=O)[O-])cc1",3.1084000000000014,49.36,277.18091823991,3,0,11,0,3,0,3,20,45,0,1,1,0,0,0,0,0,1,0,0,0.5882352941176471
"A-4992","5-(2-methylundecan-2-yldisulfanyl)-3H-1,3,4-thiadiazole-2-thione",-3.9885639112,"CCCCCCCCCC(C)(C)SSc1n[nH]c(=S)s1","CCCCCCCCCC(C)(C)SSC1=NNC(=S)S1",1.3791456808193558,"CCCCCCCCCC(C)(C)SSc1n[nH]c(=S)s1",6.1794000000000056,24.39,350.09788283200004,2,1,10,1,5,0,6,20,46,0,1,0,0,1,0,0,1,0,0,0,0.8571428571428571
"A-4993","(4E)-3-methyl-5-(2,2,3-trimethylcyclopent-3-en-1-yl)pent-4-en-2-ol",-3.7860287034,"CC1=CCC(C=CC(C)C(C)O)C1(C)C","CC1=CCC(C=CC(C)C(C)O)C1(C)C",27.96180345578504,"CC1=CCC(C=CC(C)C(C)O)C1(C)C",3.5519000000000025,20.23,208.182715388,1,1,3,1,1,0,1,15,39,3,1,0,0,1,0,0,0,0,0,1,0.7142857142857143
"A-4997","4-{1-[4-hydroxy-3-(prop-2-en-1-yl)phenyl]propyl}-2-(prop-2-en-1-yl)phenol",-3.9963835519,"C=CCc1cc(C(C)(C)c2ccc(O)c(CC=C)c2)ccc1O","C=CCc1cc(C(C)(C)c2ccc(O)c(CC=C)c2)ccc1O",36.03386432475725,"C=CCc1cc(C(C)(C)c2ccc(O)c(CC=C)c2)ccc1O",4.880700000000005,40.46,308.177630008,2,2,6,2,2,0,2,23,47,0,2,2,0,0,0,0,0,2,0,0,0.23809523809523808
"A-4998","[2-methyl-2-(2-methylpropyl)-1,3-dioxolan-4-yl]methanol",-0.7059803773,"CC(C)CC1(C)OCC(CO)O1","CC(C)CC1(C)OCC(CO)O1",19.925652307957456,"CC(C)CC1(C)OCC(CO)O1",1.1563999999999999,38.69,174.125594436,3,1,3,1,3,0,3,12,30,2,1,0,1,1,0,1,1,0,0,0,1
"A-5000","tris(6-methylheptyl)amine",-4.0572475801,"CC(C)CCCCC[NH+](CCCCCC(C)C)CCCCCC(C)C","CC(C)CCCCC[NH+](CCCCCC(C)C)CCCCCC(C)C",5.363081501056747,"CC(C)CCCCC[NH+](CCCCCC(C)C)CCCCCC(C)C",6.520500000000007,4.44,354.40942708409,1,1,18,1,0,0,1,25,77,0,0,0,0,0,0,0,0,0,0,0,1
"A-5003","1-benzyl-N-phenylpiperidin-4-amine",-3.9542229462,"c1ccc(C[NH+]2CCC(Nc3ccccc3)CC2)cc1","c1ccc(C[NH+]2CCC(Nc3ccccc3)CC2)cc1",9.538963210171914,"c1ccc(C[NH+]2CCC(Nc3ccccc3)CC2)cc1",2.346,16.47,267.18557515609,2,2,4,2,1,0,2,20,43,0,3,2,1,1,0,1,1,2,0,0,0.3333333333333333
"A-5005","Aldadiene",-4.1007061575,"CC12CCC(=O)C=C1C=CC1C2CCC2(C)C1CCC21CCC(=O)O1","CC12CCC(=O)C=C1C=CC1C2CCC2(C)C1CCC21CCC(=O)O1",46.26201808482779,"CC12CCC(=O)C=C1C=CC1C2CCC2(C)C1CCC12CCC(=O)O1",4.370100000000003,43.370000000000005,340.20384475599997,3,0,0,0,3,0,3,25,53,6,5,0,3,5,0,1,1,0,2,4,0.7272727272727273
"A-5007","2,2,3,3,4,4,5,5-octafluoropentyl 2-methylprop-2-enoate",-4.0459673488,"C=C(C)C(=O)OCC(F)(F)C(F)(F)C(F)(F)C(F)F","C=C(C)C(=O)OCC(F)(F)C(F)(F)C(F)(F)C(F)F",40.09164947033185,"C=C(C)C(=O)OCC(F)(F)C(F)(F)C(F)(F)C(F)F",3.2767000000000017,26.3,300.039655256,2,0,6,0,2,0,10,19,27,0,0,0,0,0,0,0,0,0,0,0,0.6666666666666666
"A-5010","6,6-dimethylheptanoic acid",-2.4750431492,"CC(C)(C)CCCCC(=O)[O-]","CC(C)(C)CCCCC(=O)[O-]",6.172897355393799,"CC(C)(C)CCCCC(=O)[O-]",1.3428,40.129999999999995,157.12340336391,2,0,4,0,2,0,2,11,28,0,0,0,0,0,0,0,0,0,0,0,0.8888888888888888
"A-5012","1-(methoxymethyl)-4-[4-(methoxymethyl)phenyl]benzene",-4.0023686333,"COCc1ccc(-c2ccc(COC)cc2)cc1","COCc1ccc(-c2ccc(COC)cc2)cc1",26.301957593018383,"COCc1ccc(c2ccc(COC)cc2)cc1",3.6464000000000025,18.46,242.130679816,2,0,5,0,2,0,2,18,36,0,2,2,0,0,0,0,0,2,0,0,0.25
"A-5013","1-[({[(tetradecyloxy)carbonyl]peroxy}carbonyl)oxy]tetradecane",-4.3499005787,"CCCCCCCCCCCCCCOC(=O)OOC(=O)OCCCCCCCCCCCCCC","CCCCCCCCCCCCCCOC(=O)OOC(=O)OCCCCCCCCCCCCCC",-25.427952099683385,"CCCCCCCCCCCCCCOC(=O)OOC(=O)OCCCCCCCCCCCCCC",10.609999999999992,71.06,514.423339576,6,0,26,0,6,0,6,36,94,0,0,0,0,0,0,0,0,0,0,0,0.9333333333333333
"A-5015","Dicyclopentadiene",-3.8202211698,"C1=CC2C3C=CC(C3)C2C1","C1=CC2C3C=CC(C3)C2C1",39.880733325795326,"C1=CC2C3C=CC(C3)C2C1",2.3846000000000007,0,132.093900384,0,0,0,0,0,0,0,10,22,4,3,0,1,3,0,0,0,0,1,3,0.6
"A-5016","6,10-dimethylundecan-2-one",-4.0051761335,"CC(=O)CCCC(C)CCCC(C)C","CC(=O)CCCC(C)CCCC(C)C",5.0912802295377695,"CC(=O)CCCC(C)CCCC(C)C",4.2081000000000035,17.07,198.198365452,1,0,8,0,1,0,1,14,40,1,0,0,0,0,0,0,0,0,0,0,0.9230769230769231
"A-5018","cyclooctene",-3.770339988,"C1=CCCCCCC1","C1=CCCCCCC1",10.43055442036568,"C1=CCCCCCC1",2.8968000000000016,0,110.109550448,0,0,0,0,0,0,0,8,22,0,1,0,0,1,0,0,0,0,0,1,0.75
"A-5019","[disulfanediylbis(carbonothioylnitrilo)]tetramethane",-4.1161961212,"CN(C)C(=S)SSC(=S)N(C)C","CN(C)C(=S)SSC(=S)N(C)C",-28.637505679408243,"CN(C)C(=S)SSC(=S)N(C)C",2.0608,6.48,239.988332384,2,0,0,0,4,0,6,12,24,0,0,0,0,0,0,0,0,0,0,0,0.6666666666666666
"A-5022","tetrakis(1,2,2,6,6-pentamethylpiperidin-4-yl) butane-1,2,3,4-tetracarboxylate",-4.672731896,"C[NH+]1C(C)(C)CC(OC(=O)CC(C(=O)OC2CC(C)(C)[NH+](C)C(C)(C)C2)C(CC(=O)OC2CC(C)(C)[NH+](C)C(C)(C)C2)C(=O)OC2CC(C)(C)[NH+](C)C(C)(C)C2)CC1(C)C","C[NH+]1C(C)(C)CC(OC(=O)CC(C(=O)OC2CC(C)(C)[NH+](C)C(C)(C)C2)C(CC(=O)OC2CC(C)(C)[NH+](C)C(C)(C)C2)C(=O)OC2CC(C)(C)[NH+](C)C(C)(C)C2)CC1(C)C",82.8678259519568,"C[NH+]1C(C)(C)CC(OC(=O)CC(C(=O)OC2CC(C)(C)[NH+](C)C(C)(C)C2)C(CC(=O)OC2CC(C)(C)[NH+](C)C(C)(C)C2)C(=O)OC2CC(C)(C)[NH+](C)C(C)(C)C2)CC1(C)C",2.1090000000000044,122.96000000000002,850.6736715203601,12,4,11,4,8,0,12,60,150,2,4,0,4,4,0,4,4,0,0,0,0.9166666666666666
"A-5027","prop-2-en-1-yl 3-cyclohexylpropanoate",-4.0624492536,"C=CCOC(=O)CCC1CCCCC1","C=CCOC(=O)CCC1CCCCC1",-6.946338210919013,"C=CCOC(=O)CCC1CCCCC1",3.076100000000002,26.3,196.14632988,2,0,5,0,2,0,2,14,34,0,1,0,1,1,0,0,0,0,1,1,0.75
"A-5028","methyl 2-[(4-ethoxy-6-methylamino-1,3,5-triazin-2-yl)carbamoylsulfamoyl]benzoate",-4.3879107689,"CCOc1nc(NC)nc(NC(=O)NS(=O)(=O)c2ccccc2C(=O)OC)n1","CCOc1nc(NC)nc(NC(=O)NS(=O)(=O)c2ccccc2C(=O)OC)n1",-289.82009554728756,"CCOc1nc(NC)nc(NC(=O)NS(=O)(=O)c2ccccc2C(=O)OC)n1",0.6089999999999994,161.5,410.10085329599997,12,3,7,3,10,2,13,28,46,0,2,2,0,0,1,0,0,1,0,0,0.26666666666666666
"A-5032","4-[(4-amino-3-methylphenyl)methyl]-2-methylaniline",-4.1506087086,"Cc1cc(Cc2ccc(N)c(C)c2)ccc1N","Cc1cc(Cc2ccc(N)c(C)c2)ccc1N",25.414007597304707,"Cc1cc(Cc2ccc(N)c(C)c2)ccc1N",3.0586400000000014,52.04,226.146998576,2,4,2,2,2,0,2,17,35,0,2,2,0,0,0,0,0,2,0,0,0.2
"A-5033","tributyl-2-thiourea",-4.1840665057,"CCCCNC(=S)N(CCCC)CCCC","CCCCNC(=S)N(CCCC)CCCC",-30.033162064887488,"CCCCNC(=S)N(CCCC)CCCC",3.563200000000003,15.27,244.197319896,2,1,9,1,1,0,3,16,44,0,0,0,0,0,0,0,0,0,0,0,0.9230769230769231
"A-5034","bis(2-ethylhexyl)amine",-4.2367225564,"CCCCC(CC)C[NH2+]CC(CC)CCCC","CCCCC(CC)C[NH2+]CC(CC)CCCC",6.069327182822569,"CCCCC(CC)C[NH2+]CC(CC)CCCC",3.9826000000000032,16.61,242.28422657209,1,2,12,1,0,0,1,17,53,2,0,0,0,0,0,0,0,0,0,0,1
"A-5036","(4E)-3,3-dimethyl-5-(2,2,3-trimethylcyclopent-3-en-1-yl)pent-4-en-2-ol",-4.2167463336,"CC1=CCC(C=CC(C)(C)C(C)O)C1(C)C","CC1=CCC(C=CC(C)(C)C(C)O)C1(C)C",30.35842102559271,"CC1=CCC(C=CC(C)(C)C(C)O)C1(C)C",3.942000000000003,20.23,222.198365452,1,1,3,1,1,0,1,16,42,2,1,0,0,1,0,0,0,0,0,1,0.7333333333333333
"A-5040","bis(2,4,4-trimethylpentyl)phosphinic acid",-4.3661284711,"CC(CC(C)(C)C)CP(=O)([O-])CC(C)CC(C)(C)C","CC(CC(C)(C)C)CP(=O)([O-])CC(C)CC(C)(C)C",10.484475407450123,"CC(CC(C)(C)C)CP(=O)([O-])CC(C)CC(C)(C)C",4.7694000000000045,40.129999999999995,289.23019053791,2,0,6,0,2,0,3,19,53,2,0,0,0,0,0,0,0,0,0,0,1
"A-5041","3-(4-fluorophenyl)-1-(4-sulfamoylphenyl)thiourea",-2.9899599684,"NS(=O)(=O)c1ccc(NC(=S)Nc2ccc(F)cc2)cc1","NS(=O)(=O)c1ccc(NC(=S)Nc2ccc(F)cc2)cc1",37.01367753733325,"NS(=O)(=O)c1ccc(NC(=S)Nc2ccc(F)cc2)cc1",2.282,84.22,325.035496844,5,4,3,3,3,0,8,21,33,0,2,2,0,0,0,0,0,2,0,0,0
"A-5043","ethyl 1-(4-methoxyphenyl)-7-oxo-6-[4-(2-oxopiperidin-1-yl)phenyl]-1H,4H,5H,6H,7H-pyrazolo[3,4-c]pyridine-3-carboxylate",-4.6282058436,"CCOC(=O)c1nn(-c2ccc(OC)cc2)c2c1CCN(c1ccc(N3CCCCC3=O)cc1)C2=O","CCOC(=O)c1nn(-c2ccc(OC)cc2)c2c1CCN(c1ccc(N3CCCCC3=O)cc1)C2=O",79.93109153298657,"CCOC(=O)c1nn(c2ccc(OC)cc2)c2c1CCN(c1ccc(N3CCCCC3=O)cc1)C2=O",3.7774000000000028,93.97,488.20596999599996,9,0,6,0,7,2,9,36,64,0,5,3,1,2,1,1,2,2,0,0,0.3333333333333333
"A-5049","N',N''''-hexane-1,6-diylbis(1-cyanoguanidine)",-4.4346903729,"N#CNC(N)=NCCCCCCN=C(N)NC#N","N#CNC(N)=NCCCCCCN=C(N)NC#N",-61.46900084534886,"N#CNC(=NCCCCCCN=C(N)NC#N)N",-0.6824399999999993,148.4,250.16544257599998,8,6,7,4,4,0,8,18,36,0,0,0,0,0,0,0,0,0,0,0,0.6
"A-5050","1,5-dimethyl-1-vinylhex-4-en-1-yl propionate",-4.3823578934,"C=CC(C)(CCC=C(C)C)OC(=O)CC","C=CC(C)(CCC=C(C)C)OC(=O)CC",-8.600947035279438,"C=CC(C)(CCC=C(C)C)OC(=O)CC",3.6307000000000027,26.3,210.161979944,2,0,6,0,2,0,2,15,37,1,0,0,0,0,0,0,0,0,0,0,0.6153846153846154
"A-5054","10-Methoxyiminostilbene",-4.5144193944,"COC1=Cc2ccccc2Nc2ccccc21","COC1=Cc2ccccc2Nc2ccccc21",54.65945591156933,"COC1=Cc2ccccc2Nc2ccccc12",3.8881000000000023,21.259999999999998,223.099714036,2,1,1,1,2,0,2,17,30,0,3,2,0,1,0,0,1,2,0,0,0.06666666666666667
"A-5057","3,7,11,15-tetramethylhexadec-1-en-3-ol",-4.7086538251,"C=CC(C)(O)CCCC(C)CCCC(C)CCCC(C)C","C=CC(C)(O)CCCC(C)CCCC(C)CCCC(C)C",10.922223592094737,"C=CC(C)(O)CCCC(C)CCCC(C)CCCC(C)C",6.362500000000007,20.23,296.3079159,1,1,13,1,1,0,1,21,61,3,0,0,0,0,0,0,0,0,0,0,0.9
"A-5060","13-ethyl-3-methoxy-6,7,11,12,13,14,15,16-octahydro-17H-cyclopenta[a]phenanthren-17-one (non-preferred name)",-4.772922847,"CC[C@]12CCC3=C(CCc4cc(OC)ccc43)[C@@H]1CCC2=O","CC[C@]12CCC3=C(CCc4cc(OC)ccc43)[C@@H]1CCC2=O",56.8047023216558,"CC[C@]12CCC3=C(CCc4cc(OC)ccc34)[C@@H]1CCC2=O",4.564300000000004,26.3,296.177630008,2,0,2,0,2,0,2,22,46,2,4,1,1,3,0,0,0,1,1,3,0.55
"A-5061","3-methoxyestra-2,5(10)-dien-17-ol",-4.7610719313,"COC1=CCC2=C(CC[C@@H]3[C@@H]2CC[C@]2(C)[C@@H](O)CC[C@@H]32)C1","COC1=CCC2=C(CC[C@@H]3[C@@H]2CC[C@]2(C)[C@@H](O)CC[C@@H]32)C1",62.12793623972859,"COC1=CCC2=C(CC[C@@H]3[C@@H]2CC[C@]2(C)[C@@H](O)CC[C@@H]32)C1",4.2043000000000035,29.46,288.208930136,2,1,1,1,2,0,2,21,49,5,4,0,2,4,0,0,0,0,2,4,0.7894736842105263
"A-5063","2-ethyl-2-[2-(6-methoxy-3,4-dihydronaphthalen-1(2H)-ylidene)ethyl]cyclopentane-1,3-dione",-4.8388171185,"CCC1(CC=C2CCCc3cc(OC)ccc32)C(=O)CCC1=O","CCC1(CC=C2CCCc3cc(OC)ccc32)C(=O)CCC1=O",20.845981678841067,"CCC1(CC=C2CCCc3cc(OC)ccc23)C(=O)CCC1=O",4.1334000000000035,43.370000000000005,312.17254462799997,3,0,4,0,3,0,3,23,47,0,3,1,1,2,0,0,0,1,1,2,0.5
"A-5067","3-methoxyestra-2,5(10)-dien-17-one",-4.9798745042,"COC1=CCC2=C(CCC3C2CCC2(C)C(=O)CCC32)C1","COC1=CCC2=C(CCC3C2CCC2(C)C(=O)CCC32)C1",56.28255443687948,"COC1=CCC2=C(CCC3C2CCC2(C)C(=O)CCC32)C1",4.412500000000004,26.3,286.193280072,2,0,1,0,2,0,2,21,47,4,4,0,2,4,0,0,0,0,2,4,0.7368421052631579
"A-5069","N-phenylnaphthalen-1-amine",-4.8638916314,"c1ccc(Nc2cccc3ccccc23)cc1","c1ccc(Nc2cccc3ccccc23)cc1",48.15530188231835,"c1ccc(Nc2cccc3ccccc23)cc1",4.583400000000003,12.03,219.104799416,1,1,2,1,1,0,1,17,30,0,3,3,0,0,0,0,0,3,0,0,0
"A-5070","2-(benzoyloxy)ethyl benzoate",-5.0700925015,"O=C(OCCOC(=O)c1ccccc1)c1ccccc1","O=C(OCCOC(=O)c1ccccc1)c1ccccc1",23.028162407214836,"O=C(OCCOC(=O)c1ccccc1)c1ccccc1",2.700400000000001,52.6,270.089208928,4,0,5,0,4,0,4,20,34,0,2,2,0,0,0,0,0,2,0,0,0.125
"A-5072","2,4a,5,8a-tetramethyl-1,2,3,4,4a,7,8,8a-octahydronaphthalen-1-yl formate",-5.0311421132,"CC1=CCCC2(C)C(OC=O)C(C)CCC12C","CC1=CCCC2(C)C(OC=O)C(C)CCC12C",19.674883192851,"CC1=CCCC2(C)C(OC=O)C(C)CCC12C",3.710600000000003,26.3,236.177630008,2,0,2,0,2,0,2,17,41,4,2,0,1,2,0,0,0,0,1,2,0.8
"A-5073","methyl 3-(3,5-di-tert-butyl-4-hydroxyphenyl)propanoate",-5.1235829068,"COC(=O)CCc1cc(C(C)(C)C)c(O)c(C(C)(C)C)c1","COC(=O)CCc1cc(C(C)(C)C)c(O)c(C(C)(C)C)c1",8.23447237310652,"COC(=O)CCc1cc(C(C)(C)C)c(O)c(C(C)(C)C)c1",4.092800000000003,46.53,292.20384475599997,3,1,3,1,3,0,3,21,49,0,1,1,0,0,0,0,0,1,0,0,0.6111111111111112
"A-5074","3,9-bis(cyclohex-3-en-1-yl)-2,4,8,10-tetraoxaspiro[5.5]undecane",-5.2397354439,"C1=CCC(C2OCC3(CO2)COC(C2CC=CCC2)OC3)CC1","C1=CCC(C2OCC3(CO2)COC(C2CC=CCC2)OC3)CC1",-33.35108086829577,"C1=CCC(C2OCC3(CO2)COC(C2CC=CCC2)OC3)CC1",3.4312000000000022,36.92,320.198759376,4,0,2,0,4,0,4,23,51,2,4,0,2,4,0,2,2,0,0,2,0.7894736842105263
"A-5076","4-(3,4,5,6-tetramethyloctan-2-yl)phenol",-5.1824053879,"CCC(C)C(C)C(C)CCc1ccc(O)cc1","CCC(C)C(C)C(C)CCc1ccc(O)cc1",25.50800989346669,"CCC(C)C(C)C(C)CCc1ccc(O)cc1",4.643100000000005,20.23,234.198365452,1,1,6,1,1,0,1,17,43,3,1,1,0,0,0,0,0,1,0,0,0.625
"A-5077","13-ethyl-3-methoxy-1,4,6,7,8,9,11,12,13,14,15,16-dodecahydro-17H-cyclopenta[a]phenanthren-17-one (non-preferred name)",-5.363817292,"CC[C@]12CC[C@@H]3C4=C(CC[C@H]3[C@@H]1CCC2=O)CC(OC)=CC4","CC[C@]12CC[C@@H]3C4=C(CC[C@H]3[C@@H]1CCC2=O)CC(OC)=CC4",57.005244317427724,"CC[C@]12CC[C@@H]3C4=C(CC[C@H]3[C@@H]1CCC2=O)CC(=CC4)OC",4.802600000000004,26.3,300.208930136,2,0,2,0,2,0,2,22,50,4,4,0,2,4,0,0,0,0,2,4,0.75
"A-5078","1,2,4-tris(8-methylnonyl) benzene-1,2,4-tricarboxylate",-5.7065739478,"CC(C)CCCCCCCOC(=O)c1ccc(C(=O)OCCCCCCCC(C)C)c(C(=O)OCCCCCCCC(C)C)c1","CC(C)CCCCCCCOC(=O)c1ccc(C(=O)OCCCCCCCC(C)C)c(C(=O)OCCCCCCCC(C)C)c1",-8.465182527277944,"CC(C)CCCCCCCOC(=O)c1ccc(C(=O)OCCCCCCCC(C)C)c(C(=O)OCCCCCCCC(C)C)c1",11.14679999999999,78.90000000000002,630.485939832,6,0,27,0,6,0,6,45,111,0,1,1,0,0,0,0,0,1,0,0,0.7692307692307693
"A-5082","6,10,14-trimethylpentadecan-2-one",-5.4746775177,"CC(=O)CCCC(C)CCCC(C)CCCC(C)C","CC(=O)CCCC(C)CCCC(C)CCCC(C)C",10.784716646151358,"CC(=O)CCCC(C)CCCC(C)CCCC(C)C",6.014500000000006,17.07,268.276615772,1,0,12,0,1,0,1,19,55,2,0,0,0,0,0,0,0,0,0,0,0.9444444444444444
"A-5084","6-O-acetyl-1,3,4-tri-O-isobutyryl-beta-D-fructofuranosyl 6-O-acetyl-2,3,4-tri-O-isobutyryl-alpha-D-glucopyranoside",-6.0735348087,"CC(=O)OC[C@H]1O[C@H](O[C@]2(COC(C)=O)O[C@H](COC(=O)C(C)C)[C@@H](OC(=O)C(C)C)[C@@H]2OC(=O)C(C)C)[C@H](OC(=O)C(C)C)[C@@H](OC(=O)C(C)C)[C@@H]1OC(=O)C(C)C","CC(=O)OC[C@H]1O[C@H](O[C@]2(COC(C)=O)O[C@H](COC(=O)C(C)C)[C@@H](OC(=O)C(C)C)[C@@H]2OC(=O)C(C)C)[C@H](OC(=O)C(C)C)[C@@H](OC(=O)C(C)C)[C@@H]1OC(=O)C(C)C",-5.568215363086438,"CC(=O)OC[C@H]1O[C@H](O[C@]2(COC(=O)C)O[C@H](COC(=O)C(C)C)[C@@H](OC(=O)C(C)C)[C@@H]2OC(=O)C(C)C)[C@H](OC(=O)C(C)C)[C@@H](OC(=O)C(C)C)[C@@H]1OC(=O)C(C)C",2.987400000000009,238.08999999999995,846.388529764,19,0,19,0,19,0,19,59,121,9,2,0,2,2,0,2,2,0,0,0,0.8
"A-5090","1,3-diphenylpropane-1,3-dione",-5.657902962,"O=C(CC(=O)c1ccccc1)c1ccccc1","O=C(CC(=O)c1ccccc1)c1ccccc1",24.912115115289737,"O=C(CC(=O)c1ccccc1)c1ccccc1",3.1423000000000014,34.14,224.083729624,2,0,4,0,2,0,2,17,29,0,2,2,0,0,0,0,0,2,0,0,0.06666666666666667
"A-5091","4-methyl-2-[(2-nitrophenyl)diazenyl]phenol",-5.7475958635,"CC1=CC(=NNc2ccccc2[N+](=O)[O-])C(=O)C=C1","CC1=CC(=NNc2ccccc2[N+](=O)[O-])C(=O)C=C1",70.28312395406047,"CC1=CC(=NNc2ccccc2[N+](=O)[O-])C(=O)C=C1",2.4479000000000006,84.6,257.080041212,6,1,3,1,5,0,6,19,30,0,2,1,0,1,0,0,0,1,0,1,0.07692307692307693
"A-5095","1,10-didocosyl decanedioate",-6.405660228,"CCCCCCCCCCCCCCCCCCCCCCOC(=O)CCCCCCCCC(=O)OCCCCCCCCCCCCCCCCCCCCCC","CCCCCCCCCCCCCCCCCCCCCCOC(=O)CCCCCCCCC(=O)OCCCCCCCCCCCCCCCCCCCCCC",-25.765378478321345,"CCCCCCCCCCCCCCCCCCCCCCOC(=O)CCCCCCCCC(=O)OCCCCCCCCCCCCCCCCCCCCCC",18.83739999999998,52.60000000000001,818.8091118719999,4,0,51,0,4,0,4,58,164,0,0,0,0,0,0,0,0,0,0,0,0.9629629629629629
"A-5096","6-Methylene-3,20-dioxopregn-4-en-17-yl acetate",-6.1077931611,"C=C1CC2C(CCC3(C)C2CCC3(OC(C)=O)C(C)=O)C2(C)CCC(=O)C=C12","C=C1CC2C(CCC3(C)C2CCC3(OC(C)=O)C(C)=O)C2(C)CCC(=O)C=C12",68.82699382586237,"C=C1CC2C(CCC3(C)C2CCC3(OC(=O)C)C(=O)C)C2(C)CCC(=O)C=C12",4.575300000000004,60.440000000000005,384.23005950399994,4,0,2,0,4,0,4,28,60,6,4,0,3,4,0,0,0,0,3,4,0.7083333333333334
"A-5097","N,N-dibutyl({[(dibutylcarbamothioyl)sulfanyl]methyl}sulfanyl)carbothioamide",-6.2405235691,"CCCCN(CCCC)C(=S)SCSC(=S)N(CCCC)CCCC","CCCCN(CCCC)C(=S)SCSC(=S)N(CCCC)CCCC",-62.347933134684894,"CCCCN(CCCC)C(=S)SCSC(=S)N(CCCC)CCCC",6.7845000000000075,6.48,422.191783216,2,0,14,0,4,0,6,25,63,0,0,0,0,0,0,0,0,0,0,0,0.8947368421052632
"A-5100","ethyl 1-(4-methoxyphenyl)-6-(4-nitrophenyl)-7-oxo-1H,4H,5H,6H,7H-pyrazolo[3,4-c]pyridine-3-carboxylate",-6.6187193264,"CCOC(=O)c1nn(-c2ccc(OC)cc2)c2c1CCN(c1ccc([N+](=O)[O-])cc1)C2=O","CCOC(=O)c1nn(-c2ccc(OC)cc2)c2c1CCN(c1ccc([N+](=O)[O-])cc1)C2=O",81.8936811056493,"CCOC(=O)c1nn(c2ccc(OC)cc2)c2c1CCN(c1ccc([N+](=O)[O-])cc1)C2=O",3.168700000000002,116.79999999999998,436.13828435999994,10,0,6,0,8,1,10,32,52,0,4,3,0,1,1,0,1,2,0,0,0.22727272727272727
"A-5101","dimethyl[3-(octadecyloxy)propyl]amine",-6.8520540298,"CCCCCCCCCCCCCCCCCCOCCC[NH+](C)C","CCCCCCCCCCCCCCCCCCOCCC[NH+](C)C",-14.019656463286271,"CCCCCCCCCCCCCCCCCCOCCC[NH+](C)C",5.7991000000000055,13.670000000000002,356.38869164009003,2,1,21,1,1,0,2,25,75,0,0,0,0,0,0,0,0,0,0,0,1
"A-5104","2-(2-hydroxybenzoyl)-5-methoxyphenol",-7.2738841077,"COc1ccc(C(=O)c2ccccc2O)c(O)c1","COc1ccc(C(=O)c2ccccc2O)c(O)c1",52.61579714546692,"COc1ccc(C(=O)c2ccccc2O)c(O)c1",2.3374000000000015,66.76,244.073558864,4,2,3,2,4,0,4,18,30,0,2,2,0,0,0,0,0,2,0,0,0.07142857142857142
"A-5106","2-oxo-N-[4-({4-[(2-oxoazepane-1-carbonyl)amino]phenyl}methyl)phenyl]azepane-1-carboxamide",-7.7632612616,"O=C1CCCCCN1C(=O)Nc1ccc(Cc2ccc(NC(=O)N3CCCCCC3=O)cc2)cc1","O=C1CCCCCN1C(=O)Nc1ccc(Cc2ccc(NC(=O)N3CCCCCC3=O)cc2)cc1",-21.011364369961424,"O=C1CCCCCN1C(=O)Nc1ccc(Cc2ccc(NC(=O)N3CCCCCC3=O)cc2)cc1",5.146400000000004,98.82,476.242355504,8,2,4,2,4,6,8,35,67,0,4,2,2,2,0,2,2,2,0,0,0.4074074074074074
"A-5107","{4-[(4-methylphenyl)sulfanyl]phenyl}(phenyl)methanone",-7.6154082599,"Cc1ccc(Sc2ccc(C(=O)c3ccccc3)cc2)cc1","Cc1ccc(Sc2ccc(C(=O)c3ccccc3)cc2)cc1",57.623625698963224,"Cc1ccc(Sc2ccc(C(=O)c3ccccc3)cc2)cc1",5.377220000000005,17.07,304.092186132,1,0,4,0,2,0,2,22,38,0,3,3,0,0,0,0,0,3,0,0,0.05
"A-5110","bis(2,3,4,4-tetramethylpentan-2-yl)trisulfane",-9.129966133,"CC(C(C)(C)C)C(C)(C)SSSC(C)(C)C(C)C(C)(C)C","CC(C(C)(C)C)C(C)(C)SSSC(C)(C)C(C)C(C)(C)C",15.417094395260333,"CC(C(C)(C)C)C(C)(C)SSSC(C)(C)C(C)C(C)(C)C",7.937600000000008,0,350.21356421599995,0,0,6,0,3,0,3,21,59,2,0,0,0,0,0,0,0,0,0,0,1
"A-5118","2-amino-2-(hydroxymethyl)propane-1,3-diol",0.790628369,"[NH3+]C(CO)(CO)CO","[NH3+]C(CO)(CO)CO",-41.38534887069614,"[NH3+]C(CO)(CO)CO",-3.0559999999999996,88.33000000000001,122.08116966409,4,6,3,4,3,0,4,8,20,0,0,0,0,0,0,0,0,0,0,0,1
"A-5126","D-Glucitol, propoxylated",0.053341445,"OCCCOCC(OCCCO)C(OCCCO)C(OCCCO)C(COCCCO)OCCCO","OCCCOCC(OCCCO)C(OCCCO)C(OCCCO)C(COCCCO)OCCCO",64.80861599391378,"OCCCOCC(OCCCO)C(OCCCO)C(OCCCO)C(COCCCO)OCCCO",-1.145199999999993,176.76,530.3302270399998,12,6,29,6,12,0,12,36,86,4,0,0,0,0,0,0,0,0,0,0,1
"A-5127","5-methyl-[1,2,4]triazolo[1,5-a]pyrimidin-7-ol",-1.3471955313,"Cc1cc(=O)n2[nH]cnc2n1","CC1=CC(=O)N2NC=NC2=N1",-21.713225642780376,"Cc1cc(=O)n2[nH]cnc2n1",-0.3650999999999999,57.06,150.054160812,5,1,0,1,4,1,5,11,17,0,2,0,0,2,0,0,2,0,0,0,0.16666666666666666
"A-5133","decane-1,10-diamine",1.527701003,"[NH3+]CCCCCCCCCC[NH3+]","[NH3+]CCCCCCCCCC[NH3+]",26.175151753814223,"[NH3+]CCCCCCCCCC[NH3+]",0.5910000000000004,55.28,174.20850167217998,2,6,9,2,0,0,2,12,38,0,0,0,0,0,0,0,0,0,0,0,1
"A-5139","N-(butoxymethyl)prop-2-enamide",-0.6536630282,"C=CC(=O)NCOCCCC","C=CC(=O)NCOCCCC",-29.79523520277847,"C=CC(=O)NCOCCCC",1.0628,38.33,157.11027872,3,1,6,1,2,1,3,11,26,0,0,0,0,0,0,0,0,0,0,0,0.625
"A-5145","(2R)-2-hydroxy-N-(2-hydroxyethyl)propanamide",1.3070323786,"CC(O)C(=O)NCCO","CC(O)C(=O)NCCO",14.844540010166174,"CC(O)C(=O)NCCO",-1.5243,69.56,133.073893212,4,3,3,3,3,1,4,9,20,1,0,0,0,0,0,0,0,0,0,0,0.8
"A-5147","oxolan-2-ylmethanol",0.3887739198,"OCC1CCCO1","OCC1CCCO1",17.546109203325628,"OCC1CCCO1",0.15769999999999995,29.46,102.06807956,2,1,1,1,2,0,2,7,17,1,1,0,1,1,0,1,1,0,0,0,1
"A-5154","pentane-2,4-dione",0.1864485079,"CC(=O)CC(C)=O","CC(=O)CC(C)=O",-12.599797185605059,"CC(=O)CC(=O)C",0.5545,34.14,100.052429496,2,0,2,0,2,0,2,7,15,0,0,0,0,0,0,0,0,0,0,0,0.6