"ID","Name","Solubility","SMILES Canonical","Smiles (Optimized Geometry)","Energy","Smiles","SlogP","TPSA","ExactMW","NumLipinskiHBA","NumLipinskiHBD","NumRotatableBonds","NumHBD","NumHBA","NumAmideBonds","NumHeteroAtoms","NumHeavyAtoms","NumAtoms","NumStereocenters","NumRings","NumAromaticRings","NumSaturatedRings","NumAliphaticRings","NumAromaticHeterocycles","NumSaturatedHeterocycles","NumAliphaticHeterocycles","NumAromaticCarbocycles","NumSaturatedCarbocycles","NumAliphaticCarbocycles","FractionCSP3"
"A-5404","1,5-dimethyl-1-vinylhex-4-en-1-yl formate",-4.0405904263,"C=CC(C)(CCC=C(C)C)OC=O","C=CC(C)(CCC=C(C)C)OC=O",-13.10040933000634,"C=CC(C)(CCC=C(C)C)OC=O",2.850500000000001,26.3,182.130679816,2,0,6,0,2,0,2,13,31,1,0,0,0,0,0,0,0,0,0,0,0.5454545454545454
"A-5405","N-(2-oxo-2,3-dihydropyrimidin-4-yl)benzamide",-5.1596802151,"O=C(Nc1ccnc(=O)[nH]1)c1ccccc1","O=C1N=CC=C(NC(=O)c2ccccc2)N1",-15.371736007149597,"O=c1nccc(NC(=O)c2ccccc2)[nH]1",1.0518000000000003,70.56,215.069476528,5,2,2,2,2,3,5,16,25,0,2,1,0,1,0,0,1,1,0,0,0
"A-5408","(2Z)-4-{2-[2-(2-{[(2Z)-3-carboxyprop-2-enoyl]oxy}ethoxy)ethoxy]ethoxy}-4-oxobut-2-enoic acid",0.1595325622,"O=C([O-])C=CC(=O)OCCOCCOCCOC(=O)C=CC(=O)[O-]","O=C([O-])C=CC(=O)OCCOCCOCCOC(=O)C=CC(=O)[O-]",32.063234673551406,"O=C([O-])C=CC(=O)OCCOCCOCCOC(=O)C=CC(=O)[O-]",-3.281799999999997,151.32,344.07544387181997,10,0,13,0,10,0,10,24,40,0,0,0,0,0,0,0,0,0,0,0,0.42857142857142855
"A-5413","7-fluoro-1,3-dihydroindol-2-one",-2.2251369084,"O=C1Cc2cccc(F)c2N1","O=C1Cc2cccc(F)c2N1",27.954466294759687,"O=C1Cc2cccc(F)c2N1",1.3203,29.1,151.043342032,2,1,0,1,1,1,3,11,17,0,2,1,0,1,0,0,1,1,0,0,0.125
"A-5414","N-[3-(8-methylnonoxy)propyl]propane-1,3-diamine",-3.2048809276,"CC(C)CCCCCCCOCCC[NH2+]CCC[NH3+]","CC(C)CCCCCCCOCCC[NH2+]CCC[NH3+]",21.7972081353373,"CC(C)CCCCCCCOCCC[NH2+]CCC[NH3+]",1.5851000000000024,53.480000000000004,274.29731667618,3,5,15,2,1,0,3,19,57,0,0,0,0,0,0,0,0,0,0,0,1
"A-5423","Heptanoic acid, ester with 2-ethyl-2-(hydroxymethyl)-1,3-propanediol pentanoate",-5.982567027,"CCCCCCC(=O)OCC(CC)(CO)COC(=O)CCCC","CCCCCCC(=O)OCC(CC)(CO)COC(=O)CCCC",-22.07781138965754,"CCCCCCC(=O)OCC(CC)(CO)COC(=O)CCCC",3.6221000000000023,72.83000000000001,330.240624188,5,1,14,1,5,0,5,23,57,1,0,0,0,0,0,0,0,0,0,0,0.8888888888888888
"A-5426","diethyl cyclohexane-1,4-dicarboxylate",-2.2512731137,"CCOC(=O)C1CCC(C(=O)OCC)CC1","CCOC(=O)C1CCC(C(=O)OCC)CC1",-10.006321672032861,"CCOC(=O)C1CCC(C(=O)OCC)CC1",1.9189999999999998,52.60000000000001,228.13615912,4,0,4,0,4,0,4,16,36,0,1,0,1,1,0,0,0,0,1,1,0.8333333333333334
"A-5432","3-(3-cyano-6-hydroxy-4-methyl-2-oxo-1,2-dihydropyridin-1-yl)propanoic acid",-1.4436540676,"Cc1cc([O-])n(CCC(=O)[O-])c(=O)c1C#N","CC1=C(C#N)C(=O)N(CCC(=O)[O-])C([O-])=C1",22.07608977579141,"Cc1c(C#N)c(=O)n(CCC(=O)[O-])c([O-])c1",-1.989619999999998,107.28999999999999,220.04950389582,6,0,3,0,5,1,6,16,24,0,1,0,0,1,0,0,1,0,0,0,0.3
"A-5433","3-(3-carbamoyl-6-hydroxy-4-methyl-2-oxo-1,2-dihydropyridin-1-yl)propanoic acid",-1.6024488726,"Cc1cc([O-])n(CCC(=O)[O-])c(=O)c1C(N)=O","CC1=C(C(N)=O)C(=O)N(CCC(=O)[O-])C([O-])=C1",25.332863768972977,"Cc1c(C(=O)N)c(=O)n(CCC(=O)[O-])c([O-])c1",-3.027899999999998,126.59,238.06006857982,7,2,4,1,5,2,7,17,27,0,1,0,0,1,0,0,1,0,0,0,0.3
"A-5437","(2S)-2-amino-6-octanamidohexanoic acid",0.0575708237,"CCCCCCCC(=O)NCCCC[C@H]([NH3+])C(=O)[O-]","CCCCCCCC(=O)NCCCC[C@H]([NH3+])C(=O)[O-]",-76.48271344690383,"CCCCCCCC(=O)NCCCC[C@H]([NH3+])C(=O)[O-]",-0.006199999999997374,96.87,272.209992756,5,4,12,2,3,1,5,19,47,1,0,0,0,0,0,0,0,0,0,0,0.8571428571428571
"A-5445","1,1,1-trifluoro-N-(trifluoromethylsulfonyl)methanesulfonamide",0.4541441757,"O=S(=O)(NS(=O)(=O)C(F)(F)F)C(F)(F)F","O=S(=O)(NS(=O)(=O)C(F)(F)F)C(F)(F)F",84.66011962317427,"O=S(=O)(NS(=O)(=O)C(F)(F)F)C(F)(F)F",0.2752000000000003,80.31,280.92511883200007,5,1,2,1,4,0,13,15,16,0,0,0,0,0,0,0,0,0,0,0,1
"A-5450","2-[(Z)-octadec-9-enoxy]ethanol",-2.4949028287,"CCCCCCCCC=CCCCCCCCCOCCO","CCCCCCCCC=CCCCCCCCCOCCO",10.622815532059391,"CCCCCCCCC=CCCCCCCCCOCCO",6.032800000000007,29.46,312.30283052,2,1,18,1,2,0,2,22,62,0,0,0,0,0,0,0,0,0,0,0,0.9
"A-5451","3-[3-(benzotriazol-2-yl)-5-tert-butyl-4-hydroxyphenyl]propanoic acid",-5.53070544,"CC(C)(C)c1cc(CCC(=O)[O-])cc(-n2nc3ccccc3n2)c1O","CC(C)(C)c1cc(CCC(=O)[O-])cc(-n2nc3ccccc3n2)c1O",46.34982003820531,"CC(C)(C)c1cc(CCC(=O)[O-])cc(n2nc3ccccc3n2)c1O",2.1061,91.07000000000001,338.15101507991,6,1,4,1,6,0,6,25,45,0,3,3,0,0,1,0,0,2,0,0,0.3157894736842105
"A-5456","2,3-dihydroxypropyl 12-hydroxyoctadecanoate",-3.3974324562,"CCCCCCC(O)CCCCCCCCCCC(=O)OCC(O)CO","CCCCCCC(O)CCCCCCCCCCC(=O)OCC(O)CO",4.540794305655222,"CCCCCCC(O)CCCCCCCCCCC(=O)OCC(O)CO",4.115100000000004,86.99000000000001,374.3032244439999,5,3,19,3,5,0,5,26,68,2,0,0,0,0,0,0,0,0,0,0,0.9523809523809523
"A-5457","methyl 2-[(4aS)-3,6-bis(diethylamino)-2,7-dimethyl-4aH-xanthen-9-yl]benzoate",-7.6872220822,"CCN(CC)c1cc2c(cc1C)C(c1ccccc1C(=O)OC)=C1C=C(C)C([NH+](CC)CC)=C[C@@H]1O2","CCN(CC)c1cc2c(cc1C)C(c1ccccc1C(=O)OC)=C1C=C(C)C([NH+](CC)CC)=C[C@@H]1O2",62.269991733120676,"CCN(CC)c1cc2c(cc1C)C(=C1C=C(C)C(=C[C@@H]1O2)[NH+](CC)CC)c1ccccc1C(=O)OC",4.959220000000004,43.21000000000001,487.29551952809,5,1,8,1,4,0,5,36,75,1,4,2,0,2,0,0,1,2,0,1,0.3870967741935484
"A-5458","1,4-diethyl 2-{[4-({4-[(1,4-diethoxy-1,4-dioxobutan-2-yl)amino]cyclohexyl}methyl)cyclohexyl]amino}butanedioate",-3.7440777388,"CCOC(=O)CC([NH2+]C1CCC(CC2CCC([NH2+]C(CC(=O)OCC)C(=O)OCC)CC2)CC1)C(=O)OCC","CCOC(=O)CC([NH2+]C1CCC(CC2CCC([NH2+]C(CC(=O)OCC)C(=O)OCC)CC2)CC1)C(=O)OCC",-74.50858406487475,"CCOC(=O)CC([NH2+]C1CCC(CC2CCC([NH2+]C(CC(=O)OCC)C(=O)OCC)CC2)CC1)C(=O)OCC",1.3907000000000065,138.42000000000002,556.3712694641798,10,4,16,2,8,0,10,39,91,2,2,0,2,2,0,0,0,0,2,2,0.8620689655172413
"A-5459","2,2,4,4,6,8,8-heptamethylnonane",-3.3549684893,"CC(CC(C)(C)C)CC(C)(C)CC(C)(C)C","CC(CC(C)(C)C)CC(C)(C)CC(C)(C)C",17.401962076091873,"CC(CC(C)(C)C)CC(C)(C)CC(C)(C)C",5.911200000000006,0,226.26605108799998,0,0,4,0,0,0,0,16,50,1,0,0,0,0,0,0,0,0,0,0,1
"A-5462","N-benzyl-2-acetamido-3-methoxypropanamide",-3.3984573794,"COCC(NC(C)=O)C(=O)NCc1ccccc1","COCC(NC(C)=O)C(=O)NCc1ccccc1",7.972483342115918,"COCC(NC(=O)C)C(=O)NCc1ccccc1",0.4539000000000007,67.42999999999999,250.131742436,5,2,6,2,3,2,5,18,36,1,1,1,0,0,0,0,0,1,0,0,0.38461538461538464
"A-5464","1-(1-butoxypropan-2-yloxy)propan-2-ol",-0.6530596225,"CCCCOCC(C)OCC(C)O","CCCCOCC(C)OCC(C)O",31.702360845630082,"CCCCOCC(C)OCC(C)O",1.589,38.69,190.156894564,3,1,8,1,3,0,3,13,35,2,0,0,0,0,0,0,0,0,0,0,1
"A-5465","Nonadecanoic acid",-3.775990335,"CCCCCCCCCCCCCCCCCCC(=O)[O-]","CCCCCCCCCCCCCCCCCCC(=O)[O-]",1.8430764203880545,"CCCCCCCCCCCCCCCCCCC(=O)[O-]",5.387900000000005,40.129999999999995,297.27990400391,2,0,17,0,2,0,2,21,58,0,0,0,0,0,0,0,0,0,0,0,0.9473684210526315
"A-5468","2-Ethoxy-2-methylbutane",-1.4719350107,"CCOC(C)(C)CC","CCOC(C)(C)CC",7.32501319521276,"CCOC(C)(C)CC",2.2115,9.23,116.120115132,1,0,3,0,1,0,1,8,24,0,0,0,0,0,0,0,0,0,0,0,1
"A-5469","2-methyl-4-phenylpentan-1-ol",-2.3469160768,"CC(CO)CC(C)c1ccccc1","CC(CO)CC(C)c1ccccc1",22.68175309482487,"CC(CO)CC(C)c1ccccc1",2.808600000000001,20.23,178.135765196,1,1,4,1,1,0,1,13,31,2,1,1,0,0,0,0,0,1,0,0,0.5
"A-5473","1-amino-4-hydroxy-2-phenoxy-9,10-dihydroanthracene-9,10-dione",-4.2192268325,"Nc1c(Oc2ccccc2)cc([O-])c2c1C(=O)c1ccccc1C2=O","Nc1c(Oc2ccccc2)cc([O-])c2c1C(=O)c1ccccc1C2=O",95.58051441863515,"Nc1c(Oc2ccccc2)cc([O-])c2c1C(=O)c1ccccc1C2=O",2.9101000000000017,92.44999999999999,330.07718144391,5,2,2,1,5,0,5,25,37,0,4,3,0,1,0,0,0,3,0,1,0
"A-5474","Indanthren Rubine rs",-4.3931837232,"CCn1nc2cc(-c3cc4c5c(n(CC)nc5c3)-c3ccccc3C4=O)cc3c2c1-c1ccccc1C3=O","CCn1nc2cc(-c3cc4c5c(n(CC)nc5c3)-c3ccccc3C4=O)cc3c2c1-c1ccccc1C3=O",126.07541445186708,"CCn1nc2cc(c3cc4c5c(n(CC)nc5c3)c3ccccc3c4=O)cc3c2c1c1ccccc1c3=O",6.515600000000005,69.78,494.17427594399993,6,0,3,0,6,0,6,38,60,0,8,6,0,2,2,0,0,4,0,2,0.125
"A-5475","16,23-dihydronaphth[2',3':6,7]indolo[2,3-c]dinaphtho[2,3-a:2'3'-i]carbazole-5,10,15,17,22,24-hexone",-4.5096151077,"O=c1c2ccccc2c(=O)c2c1ccc1c2[nH]c2c3c(=O)c4ccccc4c(=O)c3c3[nH]c4c(ccc5c(=O)c6ccccc6c(=O)c54)c3c12","O=C1c2ccccc2C(=O)c2c1ccc1c2[nH]c2c3c(c4[nH]c5c6c(ccc5c4c21)C(=O)c1ccccc1C6=O)C(=O)c1ccccc1C3=O",117.39824053070794,"O=C1c2ccccc2C(=O)c2c1ccc1c2[nH]c2c3c(c4[nH]c5c6c(ccc5c4c12)C(=O)c1ccccc1C6=O)C(=O)c1ccccc1C3=O",7.281800000000004,133.99999999999997,646.1164862960001,8,2,0,2,6,0,8,50,68,0,11,8,0,3,2,0,0,6,0,3,0
"A-5477","16-Nitroviolanthrone",-4.3992383437,"O=C1c2ccccc2-c2ccc3c4c([N+](=O)[O-])cc5c6c(ccc(c7ccc1c2c73)c64)C(=O)c1ccccc1-5","O=C1c2ccccc2-c2ccc3c4c([N+](=O)[O-])cc5c6c(ccc(c7ccc1c2c73)c64)C(=O)c1ccccc1-5",143.80655795986092,"O=C1c2ccccc2c2ccc3c4c([N+](=O)[O-])cc5c6c(ccc(c7ccc1c2c37)c46)C(=O)c1ccccc51",8.068200000000004,77.28,501.10010796,5,0,1,0,4,0,5,39,54,0,9,7,0,2,0,0,0,7,0,2,0
"A-5478","4-[(4-ethoxyphenyl)amino]-N,N-dimethyl-3-nitrobenzene-1-sulfonamide",-4.2617516212,"CCOc1ccc(Nc2ccc(S(=O)(=O)N(C)C)cc2[N+](=O)[O-])cc1","CCOc1ccc(Nc2ccc(S(=O)(=O)N(C)C)cc2[N+](=O)[O-])cc1",-17.481850724690812,"CCOc1ccc(Nc2ccc(S(=O)(=O)N(C)C)cc2[N+](=O)[O-])cc1",2.987400000000002,101.78,365.104541708,8,1,7,1,6,0,9,25,44,0,2,2,0,0,0,0,0,2,0,0,0.25
"A-5479","Calcoloid Olive r",-4.5222231174,"O=C(Nc1cc2c3cc(NC(=O)c4ccccc4)c4c(=O)c5ccccc5c(=O)c4c3[nH]c2c2c(=O)c3ccccc3c(=O)c12)c1ccccc1","O=C(Nc1cc2c([nH]c3c4c(c(NC(=O)c5ccccc5)cc32)C(=O)c2ccccc2C4=O)c2c1C(=O)c1ccccc1C2=O)c1ccccc1",107.2349768116739,"O=C(Nc1cc2c([nH]c3c4c(c(NC(=O)c5ccccc5)cc23)C(=O)c2ccccc2C4=O)c2c1C(=O)c1ccccc1C2=O)c1ccccc1",7.376500000000005,142.26999999999998,665.158685456,9,3,4,3,6,2,9,51,74,0,9,7,0,2,1,0,0,6,0,2,0
"A-5483","1-[2-dimethylamino-1-(4-methoxyphenyl)ethyl]cyclohexan-1-ol",0.2567187446,"COc1ccc(C(C[NH+](C)C)C2(O)CCCCC2)cc1","COc1ccc(C(C[NH+](C)C)C2(O)CCCCC2)cc1",43.00310430966242,"COc1ccc(C(C[NH+](C)C)C2(O)CCCCC2)cc1",1.6184999999999998,33.900000000000006,278.21145555609,3,2,5,2,2,0,3,20,48,1,2,1,1,1,0,0,0,1,1,1,0.6470588235294118
"A-5487","dodecyl prop-2-enoate",-4.3809109776,"C=CC(=O)OCCCCCCCCCCCC","C=CC(=O)OCCCCCCCCCCCC",-10.715279409461747,"C=CC(=O)OCCCCCCCCCCCC",4.636500000000004,26.3,240.208930136,2,0,12,0,2,0,2,17,45,0,0,0,0,0,0,0,0,0,0,0,0.8
"A-5490","tetradecyl prop-2-enoate",-4.428848848,"C=CC(=O)OCCCCCCCCCCCCCC","C=CC(=O)OCCCCCCCCCCCCCC",-7.443321568480527,"C=CC(=O)OCCCCCCCCCCCCCC",5.416700000000006,26.3,268.240230264,2,0,14,0,2,0,2,19,51,0,0,0,0,0,0,0,0,0,0,0,0.8235294117647058
"A-5495","methyl 5-amino-4-cyano-3-methylthiophene-2-carboxylate",-4.9917376214,"COC(=O)c1sc(N)c(C#N)c1C","COC(=O)c1sc(N)c(C#N)c1C",11.3631722223904,"COC(=O)c1sc(N)c(C#N)c1C",1.2970000000000002,76.11,196.030648496,4,2,1,1,5,0,5,13,21,0,1,1,0,0,1,0,0,0,0,0,0.25
"A-5496","dimethyl octadecylphosphonate",-5.5299661631,"CCCCCCCCCCCCCCCCCCP(=O)(OC)OC","CCCCCCCCCCCCCCCCCCP(=O)(OC)OC",-41.290317782670186,"CCCCCCCCCCCCCCCCCCP(=O)(OC)OC",7.7338000000000084,35.53,362.29498186599994,3,0,19,0,3,0,4,24,67,0,0,0,0,0,0,0,0,0,0,0,1
"A-5497","(9Z)-N-(2-hydroxypropyl)octadec-9-enamide",-5.5309216408,"CCCCCCCCC=CCCCCCCCC(=O)NCC(C)O","CCCCCCCCC=CCCCCCCCC(=O)NCC(C)O",-3.813611781537137,"CCCCCCCCC=CCCCCCCCC(=O)NCC(C)O",5.520900000000006,49.33,339.313729552,3,2,17,2,2,1,3,24,65,1,0,0,0,0,0,0,0,0,0,0,0.8571428571428571
"A-5499","2-hydroxy-1-{1-[4-(2-hydroxy-2-methylpropanoyl)phenyl]-1,3,3-trimethyl-2,3-dihydro-1H-inden-5-yl}-2-methylpropan-1-one",-5.9372904598,"CC(C)(O)C(=O)c1ccc(C2(C)CC(C)(C)c3cc(C(=O)C(C)(C)O)ccc32)cc1","CC(C)(O)C(=O)c1ccc(C2(C)CC(C)(C)c3cc(C(=O)C(C)(C)O)ccc32)cc1",99.2998135103691,"CC(C)(O)C(=O)c1ccc(C2(C)CC(C)(C)c3cc(C(=O)C(C)(C)O)ccc23)cc1",4.5811000000000055,74.6,408.23005950399994,4,2,5,2,4,0,4,30,62,1,3,2,0,1,0,0,0,2,0,1,0.46153846153846156
"A-5500","2-hydroxy-1-{3-[4-(2-hydroxy-2-methylpropanoyl)phenyl]-1,1,3-trimethyl-2,3-dihydro-1H-inden-5-yl}-2-methylpropan-1-one",-5.9638494884,"CC(C)(O)C(=O)c1ccc(C2(C)CC(C)(C)c3ccc(C(=O)C(C)(C)O)cc32)cc1","CC(C)(O)C(=O)c1ccc(C2(C)CC(C)(C)c3ccc(C(=O)C(C)(C)O)cc32)cc1",96.88978943917915,"CC(C)(O)C(=O)c1ccc(C2(C)CC(C)(C)c3ccc(C(=O)C(C)(C)O)cc23)cc1",4.5811000000000055,74.6,408.23005950399994,4,2,5,2,4,0,4,30,62,1,3,2,0,1,0,0,0,2,0,1,0.46153846153846156
"A-5505","(6E)-7,11-dimethyl-3-methylidenedodeca-1,6,10-triene",-6.3103895185,"C=CC(=C)CCC=C(C)CCC=C(C)C","C=CC(=C)CCC=C(C)CCC=C(C)C",12.70211784602353,"C=CC(=C)CCC=C(C)CCC=C(C)C",5.201500000000005,0,204.187800768,0,0,7,0,0,0,0,15,39,0,0,0,0,0,0,0,0,0,0,0,0.4666666666666667
"A-5506","3-{[bis(2,6-dimethylphenoxy)phosphoryl]oxy}phenyl bis(2,6-dimethylphenyl) phosphate",-6.8367531336,"Cc1cccc(C)c1OP(=O)(Oc1cccc(OP(=O)(Oc2c(C)cccc2C)Oc2c(C)cccc2C)c1)Oc1c(C)cccc1C","Cc1cccc(C)c1OP(=O)(Oc1cccc(OP(=O)(Oc2c(C)cccc2C)Oc2c(C)cccc2C)c1)Oc1c(C)cccc1C",70.11759181008699,"Cc1cccc(C)c1OP(=O)(Oc1cccc(OP(=O)(Oc2c(C)cccc2C)Oc2c(C)cccc2C)c1)Oc1c(C)cccc1C",11.443759999999989,89.52000000000001,686.2198414999999,8,0,12,0,8,0,10,48,88,0,5,5,0,0,0,0,0,5,0,0,0.21052631578947367
"A-5507","4-(4-butylcyclohexyl)cyclohexan-1-one",-6.3736456351,"CCCCC1CCC(C2CCC(=O)CC2)CC1","CCCCC1CCC(C2CCC(=O)CC2)CC1",25.008958848032375,"CCCCC1CCC(C2CCC(=O)CC2)CC1",4.742300000000005,17.07,236.21401551600002,1,0,4,0,1,0,1,17,45,0,2,0,2,2,0,0,0,0,2,2,0.9375
"A-5511","11-methyldodecyl 2-{[(3,5-di-tert-butyl-4-hydroxyphenyl)methyl]sulfanyl}acetate",-6.7895895249,"CC(C)CCCCCCCCCCOC(=O)CSCc1cc(C(C)(C)C)c(O)c(C(C)(C)C)c1","CC(C)CCCCCCCCCCOC(=O)CSCc1cc(C(C)(C)C)c(O)c(C(C)(C)C)c1",36.81563686944217,"CC(C)CCCCCCCCCCOC(=O)CSCc1cc(C(C)(C)C)c(O)c(C(C)(C)C)c1",8.930500000000004,46.53,492.3637165239999,3,1,15,1,4,0,4,34,86,0,1,1,0,0,0,0,0,1,0,0,0.7666666666666667
"A-5516","3-hydroxy-2-(3-hydroxyquinolin-2-yl)-1H-inden-1-one",-7.0463600735,"O=C1C(=C2Nc3ccccc3C=C2O)C(=O)c2ccccc21","O=C1C(=C2Nc3ccccc3C=C2O)C(=O)c2ccccc21",48.06680680523462,"O=C1C(=c2[nH]c3ccccc3cc2O)C(=O)c2ccccc12",3.3443000000000014,66.4,289.07389321200003,4,2,0,2,4,0,4,22,33,0,4,2,0,2,0,0,1,2,0,1,0
"A-5519","1,3,5-tris(4-tert-butyl-3-hydroxy-2,6-dimethylbenzyl)-1,3,5-triazinane-2,4,6-trione",-7.5440264742,"Cc1cc(C(C)(C)C)c(O)c(C)c1Cn1c(=O)n(Cc2c(C)cc(C(C)(C)C)c(O)c2C)c(=O)n(Cc2c(C)cc(C(C)(C)C)c(O)c2C)c1=O","Cc1cc(C(C)(C)C)c(O)c(C)c1CN1C(=O)N(Cc2c(C)cc(C(C)(C)C)c(O)c2C)C(=O)N(Cc2c(C)cc(C(C)(C)C)c(O)c2C)C1=O",-148.76316330164275,"Cc1cc(C(C)(C)C)c(O)c(C)c1Cn1c(=O)n(Cc2c(C)cc(C(C)(C)C)c(O)c2C)c(=O)n(Cc2c(C)cc(C(C)(C)C)c(O)c2C)c1=O",9.72642,121.62,699.4247365440001,9,3,6,3,6,6,9,51,108,0,4,3,1,1,0,1,1,3,0,0,0.5
"A-5520","1,4-bis[(2,6-diethyl-4-methylphenyl)amino]-9,10-dihydroanthracene-9,10-dione",-7.423828912,"CCc1cc(C)cc(CC)c1Nc1ccc(Nc2c(CC)cc(C)cc2CC)c2c1C(=O)c1ccccc1C2=O","CCc1cc(C)cc(CC)c1Nc1ccc(Nc2c(CC)cc(C)cc2CC)c2c1C(=O)c1ccccc1C2=O",77.41760274405385,"CCc1cc(C)cc(CC)c1Nc1ccc(Nc2c(CC)cc(C)cc2CC)c2c1C(=O)c1ccccc1C2=O",8.815640000000002,58.199999999999996,530.2933284559999,4,2,8,2,4,0,4,40,78,0,5,4,0,1,0,0,0,4,0,1,0.2777777777777778
"A-5521","1,4-bis[(2-ethyl-6-methylphenyl)amino]-9,10-dihydroanthracene-9,10-dione",-7.3753013985,"CCc1cccc(C)c1Nc1ccc(Nc2c(C)cccc2CC)c2c1C(=O)c1ccccc1C2=O","CCc1cccc(C)c1Nc1ccc(Nc2c(C)cccc2CC)c2c1C(=O)c1ccccc1C2=O",80.32460532039596,"CCc1cccc(C)c1Nc1ccc(Nc2c(C)cccc2CC)c2c1C(=O)c1ccccc1C2=O",7.690840000000007,58.199999999999996,474.23072819999993,4,2,6,2,4,0,4,36,66,0,5,4,0,1,0,0,0,4,0,1,0.1875
"A-5522","14h-Benz[4,5]isoquino[2,1-a]perimidin-14-one",-7.2045960883,"O=c1c2cccc3cccc(c32)c2nc3cccc4cccc(c43)n12","O=C1c2cccc3cccc(c23)C2=Nc3cccc4cccc(c34)N12",57.4528808532759,"O=c1c2cccc3cccc(c23)c2nc3cccc4cccc(c34)n12",5.045100000000003,32.67,320.094963004,3,0,0,0,2,1,3,25,37,0,6,4,0,2,0,0,2,4,0,0,0
"A-5523","2-methyl-4,6-bis[(octylsulfanyl)methyl]phenol",-7.3271136165,"CCCCCCCCSCc1cc(C)c(O)c(CSCCCCCCCC)c1","CCCCCCCCSCc1cc(C)c(O)c(CSCCCCCCCC)c1",3.409716460732188,"CCCCCCCCSCc1cc(C)c(O)c(CSCCCCCCCC)c1",8.888020000000003,20.23,424.28335802799995,1,1,18,1,3,0,3,28,72,0,1,1,0,0,0,0,0,1,0,0,0.76
"A-5524","4-{[bis(octylsulfanyl)-1,3,5-triazin-2-yl]amino}-2,6-di-tert-butylphenol",-7.4690646531,"CCCCCCCCSc1nc(Nc2cc(C(C)(C)C)c(O)c(C(C)(C)C)c2)nc(SCCCCCCCC)n1","CCCCCCCCSc1nc(Nc2cc(C(C)(C)C)c(O)c(C(C)(C)C)c2)nc(SCCCCCCCC)n1",-129.3513939227197,"CCCCCCCCSc1nc(Nc2cc(C(C)(C)C)c(O)c(C(C)(C)C)c2)nc(SCCCCCCCC)n1",10.82099999999999,70.93,588.3895544119999,5,2,18,2,7,0,7,40,96,0,2,2,0,0,1,0,0,1,0,0,0.7272727272727273
"A-5526","hexadecyl acetate",-7.3971529944,"CCCCCCCCCCCCCCCCOC(C)=O","CCCCCCCCCCCCCCCCOC(C)=O",-12.906275155575791,"CCCCCCCCCCCCCCCCOC(=O)C",6.030800000000006,26.3,284.271530392,2,0,15,0,2,0,2,20,56,0,0,0,0,0,0,0,0,0,0,0,0.9444444444444444
"A-5529","1,4-bis(2-ethylhexyl) butanedioate",-7.835715931,"CCCCC(CC)COC(=O)CCC(=O)OCC(CC)CCCC","CCCCC(CC)COC(=O)CCC(=O)OCC(CC)CCCC",-30.183427109876312,"CCCCC(CC)COC(=O)CCC(=O)OCC(CC)CCCC",5.285800000000005,52.60000000000001,342.277009696,4,0,15,0,4,0,4,24,62,2,0,0,0,0,0,0,0,0,0,0,0.9
"A-5531","2,6-di-tert-butyl-4-[(3,5-di-tert-butyl-4-hydroxyphenyl)methyl]phenol",-8.6280505595,"CC(C)(C)c1cc(Cc2cc(C(C)(C)C)c(O)c(C(C)(C)C)c2)cc(C(C)(C)C)c1O","CC(C)(C)c1cc(Cc2cc(C(C)(C)C)c(O)c(C(C)(C)C)c2)cc(C(C)(C)C)c1O",50.7652959697124,"CC(C)(C)c1cc(Cc2cc(C(C)(C)C)c(O)c(C(C)(C)C)c2)cc(C(C)(C)C)c1O",7.878600000000009,40.46,424.334130648,2,2,2,2,2,0,2,31,75,0,2,2,0,0,0,0,0,2,0,0,0.5862068965517241
"A-5536","octanoyl octaneperoxoate",-7.6118931699,"CCCCCCCC(=O)OOC(=O)CCCCCCC","CCCCCCCC(=O)OOC(=O)CCCCCCC",8.813894787967447,"CCCCCCCC(=O)OOC(=O)CCCCCCC",4.7088000000000045,52.6,286.21440944,4,0,12,0,4,0,4,20,50,0,0,0,0,0,0,0,0,0,0,0,0.875
"A-5538","anthracene",-6.4448105798,"c1ccc2cc3ccccc3cc2c1","c1ccc2cc3ccccc3cc2c1",37.80651434341487,"c1ccc2cc3ccccc3cc2c1",3.993000000000002,0,178.07825032,0,0,0,0,0,0,0,14,24,0,3,3,0,0,0,0,0,3,0,0,0
"A-5541","dodecane-1-thiol",-7.5738317682,"CCCCCCCCCCCCS","CCCCCCCCCCCCS",-1.0639261511954055,"CCCCCCCCCCCCS",4.837100000000006,0,202.175521832,0,0,10,1,1,0,1,13,39,0,0,0,0,0,0,0,0,0,0,0,1
"A-5545","9,10-anthraquinone",-6.0397604981,"O=C1c2ccccc2C(=O)c2ccccc21","O=C1c2ccccc2C(=O)c2ccccc21",29.450954893556478,"O=C1c2ccccc2C(=O)c2ccccc12",2.4620000000000006,34.14,208.052429496,2,0,0,0,2,0,2,16,24,0,3,2,0,1,0,0,0,2,0,1,0
"A-5547","ethenyl 6,6-dimethylheptanoate",-7.1224610466,"C=COC(=O)CCCCC(C)(C)C","C=COC(=O)CCCCC(C)(C)C",5.0199233046091845,"C=COC(=O)CCCCC(C)(C)C",3.279600000000002,26.3,184.14632988,2,0,5,0,2,0,2,13,33,0,0,0,0,0,0,0,0,0,0,0,0.7272727272727273
"A-5548","4-[(3S)-1,3-bis(5-cyclohexyl-4-hydroxy-2-methylphenyl)butyl]-2-cyclohexyl-5-methylphenol",-7.3965020268,"Cc1cc(O)c(C2CCCCC2)cc1C(C[C@H](C)c1cc(C2CCCCC2)c(O)cc1C)c1cc(C2CCCCC2)c(O)cc1C","Cc1cc(O)c(C2CCCCC2)cc1C(C[C@H](C)c1cc(C2CCCCC2)c(O)cc1C)c1cc(C2CCCCC2)c(O)cc1C",87.39834621733316,"Cc1cc(O)c(C2CCCCC2)cc1C(C[C@H](C)c1cc(C2CCCCC2)c(O)cc1C)c1cc(C2CCCCC2)c(O)cc1C",12.19745999999998,60.69,622.438595716,3,3,8,3,3,0,3,46,104,1,6,3,3,3,0,0,0,3,3,3,0.5813953488372093
"A-5552","1,1,2,2,3,3,4,5,5,6-decafluoro-4,6-bis(trifluoromethyl)cyclohexane",-7.6021207883,"FC(F)(F)C1(F)C(F)(F)C(F)(F)C(F)(F)C(F)(C(F)(F)F)C1(F)F","FC(F)(F)C1(F)C(F)(F)C(F)(F)C(F)(F)C(F)(C(F)(F)F)C1(F)F",-100.94299276892264,"FC(F)(F)C1(F)C(F)(F)C(F)(F)C(F)(F)C(F)(C(F)(F)F)C1(F)F",5.082400000000002,0,399.97445152,0,0,0,0,0,0,16,24,24,2,1,0,1,1,0,0,0,0,1,1,1
"A-5553","octadecafluorodecahydronaphthalene",-7.6647115323,"FC1(F)C(F)(F)C(F)(F)C2(F)C(F)(F)C(F)(F)C(F)(F)C(F)(F)C2(F)C1(F)F","FC1(F)C(F)(F)C(F)(F)C2(F)C(F)(F)C(F)(F)C(F)(F)C(F)(F)C2(F)C1(F)F",43.73442312891389,"FC1(F)C(F)(F)C(F)(F)C2(F)C(F)(F)C(F)(F)C(F)(F)C(F)(F)C2(F)C1(F)F",5.512600000000003,0,461.97125796,0,0,0,0,0,0,18,28,28,0,2,0,2,2,0,0,0,0,2,2,1
"A-5554","octadecafluorooctane",-7.6415256675,"FC(F)(F)C(F)(F)C(F)(F)C(F)(F)C(F)(F)C(F)(F)C(F)(F)C(F)(F)F","FC(F)(F)C(F)(F)C(F)(F)C(F)(F)C(F)(F)C(F)(F)C(F)(F)C(F)(F)F",67.52879959470125,"FC(F)(F)C(F)(F)C(F)(F)C(F)(F)C(F)(F)C(F)(F)C(F)(F)C(F)(F)F",5.922800000000002,0,437.97125796,0,0,5,0,0,0,18,26,26,0,0,0,0,0,0,0,0,0,0,0,1