"ID","Name","Solubility","SMILES Canonical","Smiles (Optimized Geometry)","Energy","Smiles","SlogP","TPSA","ExactMW","NumLipinskiHBA","NumLipinskiHBD","NumRotatableBonds","NumHBD","NumHBA","NumAmideBonds","NumHeteroAtoms","NumHeavyAtoms","NumAtoms","NumStereocenters","NumRings","NumAromaticRings","NumSaturatedRings","NumAliphaticRings","NumAromaticHeterocycles","NumSaturatedHeterocycles","NumAliphaticHeterocycles","NumAromaticCarbocycles","NumSaturatedCarbocycles","NumAliphaticCarbocycles","FractionCSP3"
"B-296","diphenyl phthalate",-6.5891,"O=C(Oc1ccccc1)c1ccccc1C(=O)Oc1ccccc1","O=C(Oc1ccccc1)c1ccccc1C(=O)Oc1ccccc1",58.441151411268095,"O=C(Oc1ccccc1)c1ccccc1C(=O)Oc1ccccc1",4.125000000000003,52.60000000000001,318.089208928,4,0,4,0,4,0,4,24,38,0,3,3,0,0,0,0,0,3,0,0,0
"B-298","didecyl phthalate",-9.3076,"CCCCCCCCCCOC(=O)c1ccccc1C(=O)OCCCCCCCCCC","CCCCCCCCCCOC(=O)c1ccccc1C(=O)OCCCCCCCCCC",-10.654156686731234,"CCCCCCCCCCOC(=O)c1ccccc1C(=O)OCCCCCCCCCC",8.281600000000006,52.60000000000001,446.33960995199993,4,0,20,0,4,0,4,32,78,0,1,1,0,0,0,0,0,1,0,0,0.7142857142857143
"B-299","xanthoxyletin",-3.81,"COc1c2c(cc3oc(=O)ccc13)OC(C)(C)C=C2","COc1c2c(cc3c1C=CC(C)(C)O3)OC(=O)C=C2",65.12575641813858,"COc1c2c(cc3c1C=CC(C)(C)O3)oc(=O)cc2",2.811600000000001,44.760000000000005,258.089208928,4,0,1,0,4,0,4,19,33,0,3,1,0,2,0,0,2,1,0,0,0.26666666666666666
"B-303","3'-methylphthalanilic acid",-2.407,"Cc1cccc(NC(=O)c2ccccc2C(=O)[O-])c1","Cc1cccc(NC(=O)c2ccccc2C(=O)[O-])c1",30.233504662451125,"Cc1cccc(NC(=O)c2ccccc2C(=O)[O-])c1",1.6108199999999997,69.23,254.08226682391,4,1,3,1,3,1,4,19,31,0,2,2,0,0,0,0,0,2,0,0,0.06666666666666667
"B-304","2,7-naphthalenedisulfonic acid, 1-amino-",-0.2592,"Nc1ccc(S(=O)(=O)[O-])c2cc(S(=O)(=O)[O-])ccc12","Nc1ccc(S(=O)(=O)[O-])c2cc(S(=O)(=O)[O-])ccc12",84.59331556289021,"Nc1ccc(S(=O)(=O)[O-])c2cc(S(=O)(=O)[O-])ccc12",0.23020000000000024,140.42,300.97257610382,7,2,2,1,7,0,9,19,26,0,2,2,0,0,0,0,0,2,0,0,0
"B-305","1,6-naphthalenedisulfonic acid, 4-amino-",-1.643,"Nc1ccc(S(=O)(=O)[O-])c2ccc(S(=O)(=O)[O-])cc12","Nc1ccc(S(=O)(=O)[O-])c2ccc(S(=O)(=O)[O-])cc12",71.60019450380385,"Nc1ccc(S(=O)(=O)[O-])c2ccc(S(=O)(=O)[O-])cc12",0.23020000000000024,140.42,300.97257610382,7,2,2,1,7,0,9,19,26,0,2,2,0,0,0,0,0,2,0,0,0
"B-307","diphenylacetonitrile",-2.9437,"N#CC(c1ccccc1)c1ccccc1","N#CC(c1ccccc1)c1ccccc1",41.849865318806636,"N#CC(c1ccccc1)c1ccccc1",3.342080000000002,23.79,193.089149352,1,0,2,0,1,0,1,15,26,0,2,2,0,0,0,0,0,2,0,0,0.07142857142857142
"B-309","8-quinolinecarboxylic acid",-1.7447,"O=C([O-])c1cccc2cccnc12","O=C([O-])c1cccc2cccnc12",29.815032502677195,"O=C([O-])c1cccc2cccnc12",0.5982999999999998,53.019999999999996,172.04040201191,3,0,1,0,3,0,3,13,19,0,2,2,0,0,1,0,0,1,0,0,0
"B-310","benzaldehyde, 3,4,5-trimethoxy-",-2.1195,"COc1cc(C=O)cc(OC)c1OC","COc1cc(C=O)cc(OC)c1OC",45.355083036657284,"COc1cc(C=O)cc(OC)c1OC",1.5248999999999997,44.760000000000005,196.073558864,4,0,4,0,4,0,4,14,26,0,1,1,0,0,0,0,0,1,0,0,0.3
"B-311","benzoic acid, 2-hydroxy-, 3-methylbutyl ester",-3.1572,"CC(C)CCOC(=O)c1ccccc1O","CC(C)CCOC(=O)c1ccccc1O",11.898951266160836,"CC(C)CCOC(=O)c1ccccc1O",2.5951000000000017,46.53,208.109944372,3,1,4,1,3,0,3,15,31,0,1,1,0,0,0,0,0,1,0,0,0.4166666666666667
"B-312","benzoic acid, 2-hydroxy-, 2-hydroxyethyl ester",-1.1567,"O=C(OCCO)c1ccccc1O","O=C(OCCO)c1ccccc1O",18.101986629036045,"O=C(OCCO)c1ccccc1O",0.5412999999999999,66.76,182.0579088,4,2,3,2,4,0,4,13,23,0,1,1,0,0,0,0,0,1,0,0,0.2222222222222222
"B-313","n-acetyl-dl-tryptophan",-2.3122,"CC(=O)N[C@@H](Cc1c[nH]c2ccccc12)C(=O)[O-]","CC(=O)N[C@@H](Cc1c[nH]c2ccccc12)C(=O)[O-]",43.287948955364605,"CC(=O)N[C@@H](Cc1c[nH]c2ccccc12)C(=O)[O-]",-0.035000000000000364,85.02,245.09316585591,5,2,4,2,3,1,5,18,31,1,2,2,0,0,1,0,0,1,0,0,0.23076923076923078
"B-315","pyrolan",-2.0886,"Cc1cc(OC(=O)N(C)C)n(-c2ccccc2)n1","Cc1cc(OC(=O)N(C)C)n(-c2ccccc2)n1",11.772351137975338,"Cc1cc(OC(=O)N(C)C)n(c2ccccc2)n1",2.2411199999999996,47.36,245.11642672,5,0,2,0,4,1,5,18,33,0,2,2,0,0,1,0,0,1,0,0,0.23076923076923078
"B-318","1,2,3-trihydroxybenzene",0.6043,"Oc1cccc(O)c1O","Oc1cccc(O)c1O",16.25061633913454,"Oc1cccc(O)c1O",0.8033999999999997,60.69,126.031694052,3,3,0,3,3,0,3,9,15,0,1,1,0,0,0,0,0,1,0,0,0
"B-325","2-acetylthiophene",-0.9549,"CC(=O)c1cccs1","CC(=O)c1cccs1",8.33656898556261,"CC(=O)c1cccs1",1.9507,17.07,126.013935812,1,0,1,0,2,0,2,8,14,0,1,1,0,0,1,0,0,0,0,0,0.16666666666666666
"B-327","3-trifluoromethyl-4-nitrophenol",-1.6172,"O=[N+]([O-])c1ccc([O-])cc1C(F)(F)F","O=[N+]([O-])c1ccc([O-])cc1C(F)(F)F",-6.330447893782818,"O=[N+]([O-])c1ccc([O-])cc1C(F)(F)F",1.6872,66.2,206.00705119591,4,0,1,0,3,0,7,14,17,0,1,1,0,0,0,0,0,1,0,0,0.14285714285714285
"B-329","dinoseb",-3.6646,"CCC(C)c1cc([N+](=O)[O-])cc([N+](=O)[O-])c1[O-]","CCC(C)c1cc([N+](=O)[O-])cc([N+](=O)[O-])c1[O-]",62.49771025183706,"CCC(C)c1cc([N+](=O)[O-])cc([N+](=O)[O-])c1[O-]",2.0900999999999996,109.34,239.06734503191,7,0,4,0,5,0,7,17,28,1,1,1,0,0,0,0,0,1,0,0,0.4
"B-331","1,2-benzenedicarboxamide",-2.4371,"NC(=O)c1ccccc1C(N)=O","NC(=O)c1ccccc1C(N)=O",21.017482531500303,"NC(=O)c1ccccc1C(=O)N",-0.11559999999999981,86.18,164.058577496,4,4,2,2,2,2,4,12,20,0,1,1,0,0,0,0,0,1,0,0,0
"B-334","benzeneacetic acid, 2-carboxy-",-1.0515,"O=C([O-])Cc1ccccc1C(=O)[O-]","O=C([O-])Cc1ccccc1C(=O)[O-]",110.86675691556954,"O=C([O-])Cc1ccccc1C(=O)[O-]",-1.6575000000000004,80.25999999999999,178.02770583182001,4,0,3,0,4,0,4,13,19,0,1,1,0,0,0,0,0,1,0,0,0.1111111111111111
"B-337","d-glycero-d-gulo-heptonic acid, .gamma.-lactone",0.3348,"O=C1OC(C(O)C(O)CO)C(O)C1O","O=C1OC(C(O)C(O)CO)C(O)C1O",30.105033242699584,"O=C1OC(C(O)C(O)CO)C(O)C1O",-3.6523,127.45000000000002,208.05830272400001,7,5,3,5,7,0,7,14,26,5,1,0,1,1,0,1,1,0,0,0,0.8571428571428571
"B-345","penicillic acid",-0.9299,"C=C(C)C(=O)C(=CC(=O)[O-])OC","C=C(C)C(=O)C(=CC(=O)[O-])OC",23.97188774429943,"C=C(C)C(=O)C(=CC(=O)[O-])OC",-0.5882000000000003,66.43,169.05063234791,4,0,4,0,4,0,4,12,21,0,0,0,0,0,0,0,0,0,0,0,0.25
"B-346","d-gluconic acid, .delta.-lactone",0.5201,"O=C1OC(CO)C(O)C(O)C1O","O=C1OC(CO)C(O)C(O)C1O",31.89917055179941,"O=C1OC(CO)C(O)C(O)C1O",-3.0132000000000008,107.22000000000001,178.04773804,6,4,1,4,6,0,6,12,22,4,1,0,1,1,0,1,1,0,0,0,0.8333333333333334
"B-347","4,4-bis(dimethylamino)benzophenone",-2.8267,"CN(C)c1ccc(C(=O)c2ccc(N(C)C)cc2)cc1","CN(C)c1ccc(C(=O)c2ccc(N(C)C)cc2)cc1",60.25987481609714,"CN(C)c1ccc(C(=O)c2ccc(N(C)C)cc2)cc1",3.0496000000000016,23.550000000000004,268.15756326,3,0,4,0,3,0,3,20,40,0,2,2,0,0,0,0,0,2,0,0,0.23529411764705882
"B-350","quinoxaline",0.7051,"c1ccc2nccnc2c1","c1ccc2nccnc2c1",80.27709111187512,"c1ccc2nccnc2c1",1.6297999999999997,25.78,130.053098192,2,0,0,0,2,0,2,10,16,0,2,2,0,0,1,0,0,1,0,0,0
"B-351","2-naphthylamine",-2.8795,"Nc1ccc2ccccc2c1","Nc1ccc2ccccc2c1",25.36662982135592,"Nc1ccc2ccccc2c1",2.4220000000000006,26.02,143.073499288,1,2,0,1,1,0,1,11,20,0,2,2,0,0,0,0,0,2,0,0,0
"B-353","methapyrilene",-2.6383,"C[NH+](C)CCN(Cc1cccs1)c1ccccn1","C[NH+](C)CCN(Cc1cccs1)c1ccccn1",-12.735387034047724,"C[NH+](C)CCN(Cc1cccs1)c1ccccn1",1.2942000000000005,20.57,262.13724506009,3,1,6,1,3,0,4,18,38,0,2,2,0,0,2,0,0,0,0,0,0.35714285714285715
"B-354","4-phenylcatechol",-2.0659,"Oc1ccc(-c2ccccc2)cc1O","Oc1ccc(-c2ccccc2)cc1O",32.95092204271789,"Oc1ccc(c2ccccc2)cc1O",2.7648000000000006,40.46,186.06807956,2,2,1,2,2,0,2,14,24,0,2,2,0,0,0,0,0,2,0,0,0
"B-355","m-terphenyl",-5.183,"c1ccc(-c2cccc(-c3ccccc3)c2)cc1","c1ccc(-c2cccc(-c3ccccc3)c2)cc1",48.846326341681,"c1ccc(c2cccc(c3ccccc3)c2)cc1",5.0206000000000035,0,230.109550448,0,0,2,0,0,0,0,18,32,0,3,3,0,0,0,0,0,3,0,0,0
"B-357","2,3-naphthalenediol",-2.7377,"Oc1cc2ccccc2cc1O","Oc1cc2ccccc2cc1O",27.34964890509019,"Oc1cc2ccccc2cc1O",2.251000000000001,40.46,160.052429496,2,2,0,2,2,0,2,12,20,0,2,2,0,0,0,0,0,2,0,0,0
"B-358","ethanol, 2-(ethylphenylamino)-",-1.9171,"CCN(CCO)c1ccccc1","CCN(CCO)c1ccccc1",40.22144116963029,"CCN(CCO)c1ccccc1",1.5051999999999999,23.47,165.1153641,2,1,4,1,2,0,2,12,27,0,1,1,0,0,0,0,0,1,0,0,0.4
"B-359","3,6-diaminoacridine",0.3783,"Nc1ccc2cc3ccc(N)cc3nc2c1","Nc1ccc2cc3ccc(N)cc3nc2c1",36.96274848090952,"Nc1ccc2cc3ccc(N)cc3nc2c1",2.5524000000000004,64.93,209.095297352,3,4,0,2,3,0,3,16,27,0,3,3,0,0,1,0,0,2,0,0,0
"B-360","4-acetylbiphenyl",-3.3104,"CC(=O)c1ccc(-c2ccccc2)cc1","CC(=O)c1ccc(-c2ccccc2)cc1",36.13500282630555,"CC(=O)c1ccc(c2ccccc2)cc1",3.5562000000000022,17.07,196.088815004,1,0,2,0,1,0,1,15,27,0,2,2,0,0,0,0,0,2,0,0,0.07142857142857142
"B-361","p-nitrobiphenyl",-5.2094,"O=[N+]([O-])c1ccc(-c2ccccc2)cc1","O=[N+]([O-])c1ccc(-c2ccccc2)cc1",39.60578448781408,"O=[N+]([O-])c1ccc(c2ccccc2)cc1",3.261800000000001,43.14,199.063328528,3,0,2,0,2,0,3,15,24,0,2,2,0,0,0,0,0,2,0,0,0
"B-362","benzaldehyde, 2,5-dimethoxy-",-2.3202,"COc1ccc(OC)c(C=O)c1","COc1ccc(OC)c(C=O)c1",31.035324799904636,"COc1ccc(OC)c(C=O)c1",1.5163,35.53,166.06299418,3,0,3,0,3,0,3,12,22,0,1,1,0,0,0,0,0,1,0,0,0.2222222222222222
"B-364","2-quinolinecarboxylic acid",-1.0911,"O=C([O-])c1ccc2ccccc2n1","O=C([O-])c1ccc2ccccc2n1",96.4870279575789,"O=C([O-])c1ccc2ccccc2n1",0.5982999999999998,53.019999999999996,172.04040201191,3,0,1,0,3,0,3,13,19,0,2,2,0,0,1,0,0,1,0,0,0
"B-367","quinoline, 2,7-dimethyl-",-1.9424,"Cc1ccc2ccc(C)nc2c1","Cc1ccc2ccc(C)nc2c1",31.86903952366454,"Cc1ccc2ccc(C)nc2c1",2.8516400000000006,12.89,157.089149352,1,0,0,0,1,0,1,12,23,0,2,2,0,0,1,0,0,1,0,0,0.18181818181818182
"B-370","1,3-butanedione, 1-phenyl-",-2.6268,"CC(=O)CC(=O)c1ccccc1","CC(=O)CC(=O)c1ccccc1",6.156218559046144,"CC(=O)CC(=O)c1ccccc1",1.8484,34.14,162.06807956,2,0,3,0,2,0,2,12,22,0,1,1,0,0,0,0,0,1,0,0,0.2
"B-371","benzoic acid, anhydride",-4.3546,"O=C(OC(=O)c1ccccc1)c1ccccc1","O=C(OC(=O)c1ccccc1)c1ccccc1",22.398473791962218,"O=C(OC(=O)c1ccccc1)c1ccccc1",2.6838000000000006,43.370000000000005,226.06299417999998,3,0,2,0,3,0,3,17,27,0,2,2,0,0,0,0,0,2,0,0,0
"B-373","benzoic acid, 4-amino-, 2-methylpropyl ester",-2.9437,"CC(C)COC(=O)c1ccc(N)cc1","CC(C)COC(=O)c1ccc(N)cc1",11.631723810393643,"CC(C)COC(=O)c1ccc(N)cc1",2.0816,52.32,193.11027872,3,2,3,1,3,0,3,14,29,0,1,1,0,0,0,0,0,1,0,0,0.36363636363636365
"B-374","parethoxycaine",-2.7145,"CCOc1ccc(C(=O)OCC[NH+](CC)CC)cc1","CCOc1ccc(C(=O)OCC[NH+](CC)CC)cc1",24.02153668669759,"CCOc1ccc(C(=O)OCC[NH+](CC)CC)cc1",1.1667999999999998,39.97,266.17507004809,4,1,8,1,3,0,4,19,43,0,1,1,0,0,0,0,0,1,0,0,0.5333333333333333
"B-380","2-ethyl-1,3-hexandiol",-0.5418,"CCCC(O)C(CC)CO","CCCC(O)C(CC)CO",5.850347642316207,"CCCC(O)C(CC)CO",1.1659,40.46,146.130679816,2,2,5,2,2,0,2,10,28,2,0,0,0,0,0,0,0,0,0,0,1
"B-382","triethylene glycol bis(2-ethylbutyrate)",-3.2386,"CCC(CC)C(=O)OCCOCCOCCOC(=O)C(CC)CC","CCC(CC)C(=O)OCCOCCOCCOC(=O)C(CC)CC",27.56727778382761,"CCC(CC)C(=O)OCCOCCOCCOC(=O)C(CC)CC",2.9784000000000015,71.06,346.235538808,6,0,15,0,6,0,6,24,58,0,0,0,0,0,0,0,0,0,0,0,0.8888888888888888
"B-383","dimethyl glyoxime",-2.2868,"CC(N=O)=C(C)N[O-]","CC(N=O)=C(C)N[O-]",1.4097144019478982,"CC(=C(C)N[O-])N=O",1.0916,64.52,115.05130104391,4,1,2,1,4,0,4,8,15,0,0,0,0,0,0,0,0,0,0,0,0.5
"B-384","3,4-xylidine",-1.5036,"Cc1ccc(N)cc1C","Cc1ccc(N)cc1C",16.576348213368373,"Cc1ccc(N)cc1C",1.88564,26.02,121.08914935199999,1,2,0,1,1,0,1,9,20,0,1,1,0,0,0,0,0,1,0,0,0.25
"B-387","ethyl oxalate",-0.6085,"CCOC(=O)C(=O)OCC","CCOC(=O)C(=O)OCC",47.69122365127092,"CCOC(=O)C(=O)OCC",0.11260000000000003,52.60000000000001,146.0579088,4,0,2,0,4,0,4,10,20,0,0,0,0,0,0,0,0,0,0,0,0.6666666666666666
"B-398","soman",-0.9383,"CC(OP(C)(=O)F)C(C)(C)C","CC(OP(C)(=O)F)C(C)(C)C",-11.298739104481271,"CC(OP(=O)(C)F)C(C)(C)C",3.230000000000002,26.3,182.087194602,2,0,2,0,2,0,4,11,27,2,0,0,0,0,0,0,0,0,0,0,1
"B-400","2-(bis(1-methylethyl)amino)ethanol",-1.0829,"CC(C)[NH+](CCO)C(C)C","CC(C)[NH+](CCO)C(C)C",14.031156845432495,"CC(C)[NH+](CCO)C(C)C",-0.31959999999999966,24.67,146.15394068009,2,2,4,2,1,0,2,10,30,0,0,0,0,0,0,0,0,0,0,0,1
"B-401","l-valine, n-acetyl-",-0.3599,"CC(=O)N[C@H](C(=O)[O-])C(C)C","CC(=O)N[C@H](C(=O)[O-])C(C)C",36.00878100105953,"CC(=O)N[C@H](C(=O)[O-])C(C)C",-1.1029999999999998,69.23,158.08226682391,4,1,3,1,3,1,4,11,23,1,0,0,0,0,0,0,0,0,0,0,0.7142857142857143
"B-407","pentanoic acid, 2-methyl-",-0.889,"CCCC(C)C(=O)[O-]","CCCC(C)C(=O)[O-]",7.3689245326161394,"CCCC(C)C(=O)[O-]",0.17249999999999988,40.129999999999995,115.07645317191,2,0,3,0,2,0,2,8,19,1,0,0,0,0,0,0,0,0,0,0,0.8333333333333334
"B-408","ethyl lactate",0.9276,"CCOC(=O)C(C)O","CCOC(=O)C(C)O",12.311725700699883,"CCOC(=O)C(C)O",-0.06970000000000004,46.53,118.06299418,3,1,2,1,3,0,3,8,18,1,0,0,0,0,0,0,0,0,0,0,0.8
"B-410","isobutyl isobutyrate",-2.159,"CC(C)COC(=O)C(C)C","CC(C)COC(=O)C(C)C",-7.495653293801242,"CC(C)COC(=O)C(C)C",1.8416000000000001,26.3,144.115029752,2,0,3,0,2,0,2,10,26,0,0,0,0,0,0,0,0,0,0,0,0.875
"B-415","1,2-benzenediol, 4-(1,1-dimethylethyl)-",-1.9197,"CC(C)(C)c1ccc(O)c(O)c1","CC(C)(C)c1ccc(O)c(O)c1",22.3913497252262,"CC(C)(C)c1ccc(O)c(O)c1",2.3953000000000015,40.46,166.099379688,2,2,0,2,2,0,2,12,26,0,1,1,0,0,0,0,0,1,0,0,0.4
"B-419","alpha-terpineol",-2.337,"CC1=CC[C@H](C(C)(C)O)CC1","CC1=CC[C@H](C(C)(C)O)CC1",10.11815604498453,"CC1=CC[C@H](C(C)(C)O)CC1",2.503700000000001,20.23,154.135765196,1,1,1,1,1,0,1,11,29,1,1,0,0,1,0,0,0,0,0,1,0.8
"B-422","alpha-methylbenzyl alcohol",-1.7969,"CC(O)c1ccccc1","CC(O)c1ccccc1",15.630540155180974,"CC(O)c1ccccc1",1.7399,20.23,122.07316494,1,1,1,1,1,0,1,9,19,1,1,1,0,0,0,0,0,1,0,0,0.25
"B-424","picolinic acid",0.892,"O=C([O-])c1ccccn1","O=C([O-])c1ccccn1",83.01085265509792,"O=C([O-])c1ccccn1",-0.5549000000000002,53.019999999999996,122.02475194791,3,0,1,0,3,0,3,9,13,0,1,1,0,0,1,0,0,0,0,0,0
"B-425","populin",-2.8925,"O=C(OC[C@H]1O[C@@H](Oc2ccccc2CO)[C@H](O)[C@@H](O)[C@@H]1O)c1ccccc1","O=C(OC[C@H]1O[C@@H](Oc2ccccc2CO)[C@H](O)[C@@H](O)[C@@H]1O)c1ccccc1",59.19478991740261,"O=C(OC[C@H]1O[C@@H](Oc2ccccc2CO)[C@H](O)[C@@H](O)[C@@H]1O)c1ccccc1",0.2222999999999994,125.68000000000002,390.13146766399996,8,4,6,4,8,0,8,28,50,5,3,2,1,1,0,1,1,2,0,0,0.35
"B-426","methyl gallate",-1.2399,"COC(=O)c1cc(O)c(O)c(O)c1","COC(=O)c1cc(O)c(O)c(O)c1",8.957117499428412,"COC(=O)c1cc(O)c(O)c(O)c1",0.5899999999999996,86.99000000000001,184.037173356,5,3,1,3,5,0,5,13,21,0,1,1,0,0,0,0,0,1,0,0,0.125
"B-428","4-oxo-4h-pyran-2,6-dicarboxylic acid",-1.1097,"O=C([O-])c1cc(=O)cc(C(=O)[O-])o1","O=C1C=C(C(=O)[O-])OC(C(=O)[O-])=C1",94.06913433052321,"O=c1cc(C(=O)[O-])oc(C(=O)[O-])c1",-3.1467,106.56,181.98623494382002,6,0,2,0,6,0,6,13,15,0,1,0,0,1,0,0,1,0,0,0,0
"B-429","carvone",-2.0628,"C=C(C)C1CC=C(C)C(=O)C1","C=C(C)C1CC=C(C)C(=O)C1",7.152282829998352,"C=C(C)C1CC=C(C)C(=O)C1",2.4879000000000007,17.07,150.104465068,1,0,1,0,1,0,1,11,25,1,1,0,0,1,0,0,0,0,0,1,0.5
"B-432","p-(sec-butyl)phenol",-2.1945,"CCC(C)c1ccc(O)cc1","CCC(C)c1ccc(O)cc1",19.573173796128394,"CCC(C)c1ccc(O)cc1",2.9057000000000013,20.23,150.104465068,1,1,2,1,1,0,1,11,25,1,1,1,0,0,0,0,0,1,0,0,0.4
"B-434","gamma-terpinene",-4.1958,"CC1=CCC(C(C)C)=CC1","CC1=CCC(C(C)C)=CC1",18.50503139591764,"CC1=CCC(=CC1)C(C)C",3.308900000000002,0,136.125200512,0,0,1,0,0,0,0,10,26,0,1,0,0,1,0,0,0,0,0,1,0.6
"B-436","terephthalic acid",-4.0444,"O=C([O-])c1ccc(C(=O)[O-])cc1","O=C([O-])c1ccc(C(=O)[O-])cc1",65.75543782634443,"O=C([O-])c1ccc(C(=O)[O-])cc1",-1.5864000000000003,80.25999999999999,164.01205576782002,4,0,2,0,4,0,4,12,16,0,1,1,0,0,0,0,0,1,0,0,0
"B-437","2-(diethylamino)-ethanol",0.9311,"CC[NH+](CC)CCO","CC[NH+](CC)CCO",10.228142330990204,"CC[NH+](CC)CCO",-1.0965999999999994,24.67,118.12264055208999,2,2,4,2,1,0,2,8,24,0,0,0,0,0,0,0,0,0,0,0,1
"B-440","4-cyanopyridine",-0.4154,"N#Cc1ccncc1","N#Cc1ccncc1",3.5395637009680865,"N#Cc1ccncc1",0.9532799999999999,36.68,104.037448128,2,0,0,0,2,0,2,8,12,0,1,1,0,0,1,0,0,0,0,0,0
"B-441","3-cyanopyridine",0.1128,"N#Cc1cccnc1","N#Cc1cccnc1",8.128598963332113,"N#Cc1cccnc1",0.9532799999999999,36.68,104.037448128,2,0,0,0,2,0,2,8,12,0,1,1,0,0,1,0,0,0,0,0,0
"B-444","tetrahydropyran-2-methanol",0.9349,"OCC1CCCCO1","OCC1CCCCO1",21.514463266567418,"OCC1CCCCO1",0.5478000000000001,29.46,116.083729624,2,1,1,1,2,0,2,8,20,1,1,0,1,1,0,1,1,0,0,0,1
"B-445","4-ethylmorpholine",0.9386,"CC[NH+]1CCOCC1","CC[NH+]1CCOCC1",51.10112354556058,"CC[NH+]1CCOCC1",-1.078599999999999,13.670000000000002,116.10699048808999,2,1,1,1,1,0,2,8,22,0,1,0,1,1,0,1,1,0,0,0,1
"B-450","hyoscyamine",-1.91,"C[NH+]1[C@H]2CC[C@@H]1CC(OC(=O)[C@H](CO)c1ccccc1)C2","C[NH+]1[C@H]2CC[C@@H]1CC(OC(=O)[C@H](CO)c1ccccc1)C2",14.090538007571185,"C[NH+]1[C@H]2CC[C@@H]1CC(OC(=O)[C@H](CO)c1ccccc1)C2",0.5138000000000009,50.97,290.17507004809,4,2,4,2,3,0,4,21,45,5,3,1,2,2,0,2,2,1,0,0,0.5882352941176471
"B-451","4-hydroxydiphenylmethane",-3.4009,"Oc1ccc(Cc2ccccc2)cc1","Oc1ccc(Cc2ccccc2)cc1",27.81421276457865,"Oc1ccc(Cc2ccccc2)cc1",2.9830000000000005,20.23,184.088815004,1,1,2,1,1,0,1,14,26,0,2,2,0,0,0,0,0,2,0,0,0.07692307692307693
"B-454","diphenylurea, sym",-3.1508,"O=C(Nc1ccccc1)Nc1ccccc1","O=C(Nc1ccccc1)Nc1ccccc1",24.867446396166578,"O=C(Nc1ccccc1)Nc1ccccc1",3.3306000000000013,41.13,212.094963004,3,2,2,2,1,2,3,16,28,0,2,2,0,0,0,0,0,2,0,0,0
"B-455","1,3,5-triethylbenzene",-7.0641,"CCc1cc(CC)cc(CC)c1","CCc1cc(CC)cc(CC)c1",12.923688906444427,"CCc1cc(CC)cc(CC)c1",3.373800000000002,0,162.140850576,0,0,3,0,0,0,0,12,30,0,1,1,0,0,0,0,0,1,0,0,0.5
"B-456","methanediamine, n,n,n',n'-tetraethyl-",-0.1995,"CCN(CC)C[NH+](CC)CC","CCN(CC)C[NH+](CC)CC",-31.119263823636253,"CCN(CC)C[NH+](CC)CC",0.2104000000000006,7.680000000000001,159.18557515608998,2,1,6,1,1,0,2,11,34,0,0,0,0,0,0,0,0,0,0,0,1
"B-457","entprol",0.534,"CC(O)CN(CC[NH+](CC(C)O)CC(C)O)CC(C)O","CC(O)CN(CC[NH+](CC(C)O)CC(C)O)CC(C)O",63.375273850062214,"CC(O)CN(CC[NH+](CC(C)O)CC(C)O)CC(C)O",-2.303499999999994,88.60000000000001,293.24348395609,6,5,11,5,5,0,6,20,53,4,0,0,0,0,0,0,0,0,0,0,1
"B-458","triallylamine",-1.7395,"C=CC[NH+](CC=C)CC=C","C=CC[NH+](CC=C)CC=C",-32.69321792119592,"C=CC[NH+](CC=C)CC=C",0.42930000000000024,4.44,138.12772593209,1,1,6,1,0,0,1,10,26,0,0,0,0,0,0,0,0,0,0,0,0.3333333333333333
"B-461","tri n-butylamine",-3.1157,"CCCC[NH+](CCCC)CCCC","CCCC[NH+](CCCC)CCCC",0.522496538171228,"CCCC[NH+](CCCC)CCCC",2.2716000000000003,4.44,186.22162631609,1,1,9,1,0,0,1,13,41,0,0,0,0,0,0,0,0,0,0,0,1
"B-465","n-methylbenzylamine",0.9166,"C[NH2+]Cc1ccccc1","C[NH2+]Cc1ccccc1",8.589279754017845,"C[NH2+]Cc1ccccc1",0.37979999999999975,16.61,122.09642580408999,1,2,2,1,0,0,1,9,21,0,1,1,0,0,0,0,0,1,0,0,0.25
"B-468","4-methylacetanilide",-2.0946,"CC(=O)Nc1ccc(C)cc1","CC(=O)Nc1ccc(C)cc1",13.40650098107082,"CC(=O)Nc1ccc(C)cc1",1.95342,29.1,149.084063972,2,1,1,1,1,1,2,11,22,0,1,1,0,0,0,0,0,1,0,0,0.2222222222222222
"B-470","thiacetazone",-3.429,"CC(=O)Nc1ccc(C=NNC(N)=S)cc1","CC(=O)Nc1ccc(C=NNC(N)=S)cc1",45.09319359216974,"CC(=O)Nc1ccc(C=NNC(=S)N)cc1",0.8120999999999998,79.51,236.073182004,5,4,3,3,3,1,6,16,28,0,1,1,0,0,0,0,0,1,0,0,0.1
"B-471","p-toluenesulfonic acid",0.5564,"Cc1ccc(S(=O)(=O)[O-])cc1","Cc1ccc(S(=O)(=O)[O-])cc1",16.69725821952221,"Cc1ccc(S(=O)(=O)[O-])cc1",0.8991200000000001,57.2,171.01213866391,3,0,1,0,3,0,4,11,18,0,1,1,0,0,0,0,0,1,0,0,0.14285714285714285
"B-472","2-propenoic acid, 3-(4-methoxyphenyl)-, 2-ethoxy",-2.6995,"CCOCCOC(=O)C=Cc1ccc(OC)cc1","CCOCCOC(=O)C=Cc1ccc(OC)cc1",30.44474398570068,"CCOCCOC(=O)C=Cc1ccc(OC)cc1",2.2881,44.760000000000005,250.120509056,4,0,7,0,4,0,4,18,36,0,1,1,0,0,0,0,0,1,0,0,0.35714285714285715
"B-476","1-phenyldecane",-7.959,"CCCCCCCCCCc1ccccc1","CCCCCCCCCCc1ccccc1",13.476185506852117,"CCCCCCCCCCc1ccccc1",5.369800000000005,0,218.203450832,0,0,9,0,0,0,0,16,42,0,1,1,0,0,0,0,0,1,0,0,0.625
"B-478","2,5-tetrahydrofurandimethanol",0.8789,"OCC1CCC(CO)O1","OCC1CCC(CO)O1",31.271091254521956,"OCC1CCC(CO)O1",-0.4814000000000002,49.69,132.078644244,3,2,2,2,3,0,3,9,21,2,1,0,1,1,0,1,1,0,0,0,1
"B-486","methyl acetoacetate",0.6341,"COC(=O)CC(C)=O","COC(=O)CC(C)=O",-25.40249852075872,"COC(=O)CC(=O)C",0.13849999999999985,43.370000000000005,116.047344116,3,0,2,0,3,0,3,8,16,0,0,0,0,0,0,0,0,0,0,0,0.6
"B-487","s-butylacetate",-1.2727,"CCC(C)OC(C)=O","CCC(C)OC(C)=O",-7.9940289095014645,"CCC(C)OC(=O)C",1.3479999999999999,26.3,116.083729624,2,0,2,0,2,0,2,8,20,1,0,0,0,0,0,0,0,0,0,0,0.8333333333333334