"ID","Name","Solubility","SMILES Canonical","Smiles (Optimized Geometry)","Energy","Smiles","SlogP","TPSA","ExactMW","NumLipinskiHBA","NumLipinskiHBD","NumRotatableBonds","NumHBD","NumHBA","NumAmideBonds","NumHeteroAtoms","NumHeavyAtoms","NumAtoms","NumStereocenters","NumRings","NumAromaticRings","NumSaturatedRings","NumAliphaticRings","NumAromaticHeterocycles","NumSaturatedHeterocycles","NumAliphaticHeterocycles","NumAromaticCarbocycles","NumSaturatedCarbocycles","NumAliphaticCarbocycles","FractionCSP3"
"A-1219","4-hydroxy-3-(3-oxo-1-phenylbutyl)-2H-chromen-2-one",-3.0625087471,"CC(=O)CC(c1ccccc1)c1c([O-])oc2ccccc2c1=O","CC(=O)CC(C1=C([O-])Oc2ccccc2C1=O)c1ccccc1",18.675873370995255,"CC(=O)CC(c1c([O-])oc2ccccc2c1=O)c1ccccc1",2.5965000000000007,66.43,307.09758253991004,4,0,4,0,4,0,4,23,38,1,3,2,0,1,0,0,1,2,0,0,0.15789473684210525
"A-1222","tris(2-methylpropyl) phosphate",-3.0021546468,"CC(C)COP(=O)(OCC(C)C)OCC(C)C","CC(C)COP(=O)(OCC(C)C)OCC(C)C",-80.32884834201887,"CC(C)COP(=O)(OCC(C)C)OCC(C)C",4.112300000000004,44.760000000000005,266.164695974,4,0,9,0,4,0,5,17,44,0,0,0,0,0,0,0,0,0,0,0,1
"A-1225","methyl 2-methylbenzoate",-1.7566476759,"COC(=O)c1ccccc1C","COC(=O)c1ccccc1C",17.585796113582617,"COC(=O)c1ccccc1C",1.78162,26.3,150.06807956,2,0,1,0,2,0,2,11,21,0,1,1,0,0,0,0,0,1,0,0,0.2222222222222222
"A-1227","1-(acetyloxy)but-3-en-2-yl acetate",-0.8176814122,"C=C[C@@H](COC(C)=O)OC(C)=O","C=C[C@@H](COC(C)=O)OC(C)=O",-18.435497828512364,"C=C[C@@H](COC(=O)C)OC(=O)C",0.6672,52.6,172.073558864,4,0,4,0,4,0,4,12,24,1,0,0,0,0,0,0,0,0,0,0,0.5
"A-1228","3-aminophenol",-0.6229628479,"Nc1cccc(O)c1","Nc1cccc(O)c1",12.64874139060641,"Nc1cccc(O)c1",0.9743999999999999,46.25,109.052763844,2,3,0,2,2,0,2,8,15,0,1,1,0,0,0,0,0,1,0,0,0
"A-1231","2-[2-ethoxy-5-(4-ethylpiperazin-1-yl)sulfonylphenyl]-5-methyl-7-propyl-1H-imidazo[5,1-f][1,2,4]triazin-4-one",-4.8438678664,"CCCc1nc(C)c2c(=O)nc(-c3cc(S(=O)(=O)N4CC[NH+](CC)CC4)ccc3OCC)[nH]n12","CCCc1nc(C)c2n1NC(c1cc(S(=O)(=O)N3CC[NH+](CC)CC3)ccc1OCC)=NC2=O",-44.64884753703585,"CCCc1nc(C)c2n1[nH]c(c1cc(S(=O)(=O)N3CC[NH+](CC)CC3)ccc1OCC)nc2=O",0.5959200000000018,110.33000000000001,489.2278509560901,10,2,8,2,7,1,11,34,67,0,4,2,1,2,1,1,2,1,0,0,0.5217391304347826
"A-1232","(9E)-N-[3-(dimethylamino)propyl]octadec-9-enamide",-4.1492593891,"CCCCCCCCC=CCCCCCCCC(=O)NCCC[NH+](C)C","CCCCCCCCC=CCCCCCCCC(=O)NCCC[NH+](C)C",-24.875688356346487,"CCCCCCCCC=CCCCCCCCC(=O)NCCC[NH+](C)C",4.674700000000003,33.54,367.36829054409003,3,2,19,2,1,1,3,26,73,0,0,0,0,0,0,0,0,0,0,0,0.8695652173913043
"A-1234","cyclododecanone",-3.8458299965,"O=C1CCCCCCCCCCC1","O=C1CCCCCCCCCCC1",8.14691244295527,"O=C1CCCCCCCCCCC1",3.8602000000000034,17.07,182.167065324,1,0,0,0,1,0,1,13,35,0,1,0,1,1,0,0,0,0,1,1,0.9166666666666666
"A-1235","3,7-dimethyloct-6-en-1-yn-3-ol",-1.7720804309,"C#CC(C)(O)CCC=C(C)C","C#CC(C)(O)CCC=C(C)C",0.174701988944997,"C#CC(C)(O)CCC=C(C)C",2.117,20.23,152.120115132,1,1,3,1,1,0,1,11,27,1,0,0,0,0,0,0,0,0,0,0,0.6
"A-1236","4-methyl-3-nitrobenzoic acid",-2.8480980227,"Cc1ccc(C(=O)[O-])cc1[N+](=O)[O-]","Cc1ccc(C(=O)[O-])cc1[N+](=O)[O-]",36.21868607741516,"Cc1ccc(C(=O)[O-])cc1[N+](=O)[O-]",0.26671999999999985,83.27,180.03023125191,5,0,2,0,4,0,5,13,19,0,1,1,0,0,0,0,0,1,0,0,0.125
"A-1237","3-amino-4-methoxybenzenesulfonic acid",-0.8997243446,"COc1ccc(S(=O)(=O)[O-])cc1N","COc1ccc(S(=O)(=O)[O-])cc1N",23.42069975090973,"COc1ccc(S(=O)(=O)[O-])cc1N",0.1815,92.45,202.01795231591,5,2,2,1,5,0,6,13,21,0,1,1,0,0,0,0,0,1,0,0,0.14285714285714285
"A-1239","(3,4-dihydroxyphenyl)-phenylmethanone",-2.9226200497,"O=C(c1ccccc1)c1ccc(O)c(O)c1","O=C(c1ccccc1)c1ccc(O)c(O)c1",41.507088997913314,"O=C(c1ccccc1)c1ccc(O)c(O)c1",2.328800000000001,57.53,214.06299418,3,2,2,2,3,0,3,16,26,0,2,2,0,0,0,0,0,2,0,0,0
"A-1245","3-(aminomethyl)heptane",-1.7134804626,"CCCCC(CC)C[NH3+]","CCCCC(CC)C[NH3+]",6.961748678553782,"CCCCC(CC)C[NH3+]",1.4446999999999999,27.64,130.15902606008999,1,3,5,1,0,0,1,9,29,1,0,0,0,0,0,0,0,0,0,0,1
"A-1247","2-(2,4-dihydroxyphenyl)-3,5,7-trihydroxy-4H-chromen-4-one",-3.0824090581,"O=c1c([O-])c(-c2ccc(O)cc2O)oc2cc(O)cc([O-])c12","O=C1C([O-])=C(c2ccc(O)cc2O)Oc2cc(O)cc([O-])c21",198.31203206346308,"O=c1c([O-])c(c2ccc(O)cc2O)oc2cc(O)cc([O-])c12",0.18119999999999986,133.11,300.02809975582,7,3,1,3,7,0,7,22,30,0,3,2,0,1,0,0,1,2,0,0,0
"A-1252","4-[1,1-bis(4-hydroxyphenyl)ethyl]phenol",-4.086559757,"CC(c1ccc(O)cc1)(c1ccc(O)cc1)c1ccc(O)cc1","CC(c1ccc(O)cc1)(c1ccc(O)cc1)c1ccc(O)cc1",61.03308137504759,"CC(c1ccc(O)cc1)(c1ccc(O)cc1)c1ccc(O)cc1",4.157700000000002,60.69,306.125594436,3,3,3,3,3,0,3,23,41,0,3,3,0,0,0,0,0,3,0,0,0.1
"A-1255","(4-methoxy-2,2-dimethyl-3a,4,6,6a-tetrahydrofuro[3,4-d][1,3]dioxol-6-yl)methyl 4-methylbenzenesulfonate",-4.1564425332,"COC1OC(COS(=O)(=O)c2ccc(C)cc2)C2OC(C)(C)OC12","COC1OC(COS(=O)(=O)c2ccc(C)cc2)C2OC(C)(C)OC12",14.973540173701656,"COC1OC(COS(=O)(=O)c2ccc(C)cc2)C2OC(C)(C)OC12",1.59172,80.29,358.10862404399995,7,0,5,0,7,0,8,24,46,4,3,1,2,2,0,2,2,1,0,0,0.625
"A-1256","1-methoxy-2-methylbenzene",-2.6890833932,"COc1ccccc1C","COc1ccccc1C",17.053372534718306,"COc1ccccc1C",2.0036199999999997,9.23,122.07316494,1,0,1,0,1,0,1,9,19,0,1,1,0,0,0,0,0,1,0,0,0.25
"A-1269","4-(propan-2-yl)benzaldehyde",-2.7852565821,"CC(C)c1ccc(C=O)cc1","CC(C)c1ccc(C=O)cc1",18.347406458883405,"CC(C)c1ccc(C=O)cc1",2.6225000000000014,17.07,148.088815004,1,0,2,0,1,0,1,11,23,0,1,1,0,0,0,0,0,1,0,0,0.3
"A-1270","4-[(2-methylprop-2-enoyl)oxy]butyl 2-methylprop-2-enoate",-2.969024542,"C=C(C)C(=O)OCCCCOC(=O)C(=C)C","C=C(C)C(=O)OCCCCOC(=O)C(=C)C",-33.51502430102522,"C=C(C)C(=O)OCCCCOC(=O)C(=C)C",2.0052,52.6,226.120509056,4,0,7,0,4,0,4,16,34,0,0,0,0,0,0,0,0,0,0,0,0.5
"A-1275","2-(phenoxymethyl)oxirane",-1.7963921827,"c1ccc(OCC2CO2)cc1","c1ccc(OCC2CO2)cc1",23.23959213541326,"c1ccc(OCC2CO2)cc1",1.4641999999999997,21.759999999999998,150.06807956,2,0,3,0,2,0,2,11,21,1,2,1,1,1,0,1,1,1,0,0,0.3333333333333333
"A-1276","nonanedioic acid",-1.8944614494,"O=C([O-])CCCCCCCC(=O)[O-]","O=C([O-])CCCCCCCC(=O)[O-]",35.16671034663793,"O=C([O-])CCCCCCCC(=O)[O-]",-0.7830999999999997,80.25999999999999,186.09030608782,4,0,8,0,4,0,4,13,27,0,0,0,0,0,0,0,0,0,0,0,0.7777777777777778
"A-1277","1,6-dioxacycloheptadecan-7-one",-4.0179591997,"O=C1CCCCCCCCCCOCCCCO1","O=C1CCCCCCCCCCOCCCCO1",2.7525659452348012,"O=C1CCCCCCCCCCOCCCCO1",3.850900000000003,35.53,256.203844756,3,0,0,0,3,0,3,18,46,0,1,0,1,1,0,1,1,0,0,0,0.9333333333333333
"A-1280","3,7-dimethyloctanal",-3.8064830067,"CC(C)CCCC(C)CC=O","CC(C)CCCC(C)CC=O",2.2029416472485552,"CC(C)CCCC(C)CC=O",3.0378000000000016,17.07,156.15141526,1,0,6,0,1,0,1,11,31,1,0,0,0,0,0,0,0,0,0,0,0.9
"A-1286","1,3-diphenylthiourea",-3.9716884266,"S=C(Nc1ccccc1)Nc1ccccc1","S=C(Nc1ccccc1)Nc1ccccc1",38.660554691895435,"S=C(Nc1ccccc1)Nc1ccccc1",3.4955000000000016,24.06,228.072119384,2,2,2,2,1,0,3,16,28,0,2,2,0,0,0,0,0,2,0,0,0
"A-1287","estr-5(10)-ene-3,17-dione",-4.0549767292,"C[C@]12CC[C@@H]3C4=C(CC[C@H]3[C@@H]1CCC2=O)CC(=O)CC4","C[C@]12CC[C@@H]3C4=C(CC[C@H]3[C@@H]1CCC2=O)CC(=O)CC4",50.690887543131566,"C[C@]12CC[C@@H]3C4=C(CC[C@H]3[C@@H]1CCC2=O)CC(=O)CC4",3.841400000000003,34.14,272.177630008,2,0,0,0,2,0,2,20,44,4,4,0,2,4,0,0,0,0,2,4,0.7777777777777778
"A-1292","3-methyl-1,1-diphenylurea",-2.9839461582,"CNC(=O)N(c1ccccc1)c1ccccc1","CNC(=O)N(c1ccccc1)c1ccccc1",32.28007257821647,"CNC(=O)N(c1ccccc1)c1ccccc1",3.1641000000000012,32.34,226.110613068,3,1,2,1,1,2,3,17,31,0,2,2,0,0,0,0,0,2,0,0,0.07142857142857142
"A-1293","biphenyl-2-amine",-2.8611137345,"Nc1ccccc1-c1ccccc1","Nc1ccccc1-c1ccccc1",35.831260015777495,"Nc1ccccc1c1ccccc1",2.9358000000000013,26.02,169.089149352,1,2,1,1,1,0,1,13,24,0,2,2,0,0,0,0,0,2,0,0,0
"A-1295","cyclohexane-1,4-dicarboxylic acid",-0.8723707236,"O=C([O-])C1CCC(C(=O)[O-])CC1","O=C([O-])C1CCC(C(=O)[O-])CC1",67.48281544421917,"O=C([O-])C1CCC(C(=O)[O-])CC1",-1.7073999999999987,80.25999999999999,170.05900595982,4,0,2,0,4,0,4,12,22,0,1,0,1,1,0,0,0,0,1,1,0.75
"A-1298","2-(7-ethyl-1H-indol-3-yl)ethan-1-ol",-1.9153264103,"CCc1cccc2c(CCO)c[nH]c12","CCc1cccc2c(CCO)c[nH]c12",23.88511718306068,"CCc1cccc2c(CCO)c[nH]c12",2.2650999999999994,36.019999999999996,189.1153641,2,2,3,2,1,0,2,14,29,0,2,2,0,0,1,0,0,1,0,0,0.3333333333333333
"A-1302","3-(1-ethoxyethoxy)-3,7-dimethylocta-1,6-diene",-3.9764017843,"C=CC(C)(CCC=C(C)C)OC(C)OCC","C=CC(C)(CCC=C(C)C)OC(C)OCC",-12.60449875722753,"C=CC(C)(CCC=C(C)C)OC(C)OCC",4.0766000000000036,18.46,226.193280072,2,0,8,0,2,0,2,16,42,2,0,0,0,0,0,0,0,0,0,0,0.7142857142857143
"A-1304","diphenylmethanone",-3.882202908,"O=C(c1ccccc1)c1ccccc1","O=C(c1ccccc1)c1ccccc1",40.72765099786548,"O=C(c1ccccc1)c1ccccc1",2.917600000000001,17.07,182.07316494,1,0,2,0,1,0,1,14,24,0,2,2,0,0,0,0,0,2,0,0,0
"A-1305","1-cyclohexylethyl butanoate",-3.9207588975,"CCCC(=O)OC(C)C1CCCCC1","CCCC(=O)OC(C)C1CCCCC1",0.7987949729892883,"CCCC(=O)OC(C)C1CCCCC1",3.2985000000000024,26.3,198.161979944,2,0,4,0,2,0,2,14,36,1,1,0,1,1,0,0,0,0,1,1,0.9166666666666666
"A-1306","2-ethyl-3-hydroxy-2-[2-(6-methoxy-3,4-dihydronaphthalen-1(2H)-ylidene)ethyl]cyclopentanone",-4.1227687236,"CCC1(CC=C2CCCc3cc(OC)ccc32)C(=O)CCC1O","CCC1(CC=C2CCCc3cc(OC)ccc32)C(=O)CCC1O",33.373237457462245,"CCC1(CC=C2CCCc3cc(OC)ccc23)C(=O)CCC1O",3.9252000000000034,46.53,314.18819469199997,3,1,4,1,3,0,3,23,49,2,3,1,1,2,0,0,0,1,1,2,0.55
"A-1308","butylbenzene",-3.7586078484,"CCC(C)c1ccccc1","CCC(C)c1ccccc1",19.23113160297246,"CCC(C)c1ccccc1",3.2001000000000017,0,134.109550448,0,0,2,0,0,0,0,10,24,1,1,1,0,0,0,0,0,1,0,0,0.4
"A-1311","1-methyl-1-(4-methylcyclohex-3-en-1-yl)ethyl acetate",-3.931170339,"CC(=O)OC(C)(C)C1CC=C(C)CC1","CC(=O)OC(C)(C)C1CC=C(C)CC1",2.8385217535160825,"CC(=O)OC(C)(C)C1CC=C(C)CC1",3.0745000000000013,26.3,196.14632988,2,0,2,0,2,0,2,14,34,1,1,0,0,1,0,0,0,0,0,1,0.75
"A-1312","3,7,11-trimethyldodeca-1,6,10-trien-3-ol,mixed isomers",-3.9853522661,"C=CC(C)(O)CCC=C(C)CCC=C(C)C","C=CC(C)(O)CCC=C(C)CCC=C(C)C",7.853551032702896,"C=CC(C)(O)CCC=C(C)CCC=C(C)C",4.396300000000004,20.23,222.198365452,1,1,7,1,1,0,1,16,42,1,0,0,0,0,0,0,0,0,0,0,0.6
"A-1313","6-[(2-methylprop-2-enoyl)oxy]hexyl 2-methylprop-2-enoate",-4.0436629248,"C=C(C)C(=O)OCCCCCCOC(=O)C(=C)C","C=C(C)C(=O)OCCCCCCOC(=O)C(=C)C",-36.23166435129345,"C=C(C)C(=O)OCCCCCCOC(=O)C(=C)C",2.785400000000001,52.6,254.151809184,4,0,9,0,4,0,4,18,40,0,0,0,0,0,0,0,0,0,0,0,0.5714285714285714
"A-1315","4-(trifluoromethyl)aniline",-2.8473301434,"Nc1ccc(C(F)(F)F)cc1","Nc1ccc(C(F)(F)F)cc1",15.574074007305144,"Nc1ccc(C(F)(F)F)cc1",2.2876000000000003,26.02,161.045233852,1,2,0,1,1,0,4,11,17,0,1,1,0,0,0,0,0,1,0,0,0.14285714285714285
"A-1325","2-(2-butoxyethoxy)ethyl 2-methylprop-2-enoate",-2.0159485066,"C=C(C)C(=O)OCCOCCOCCCC","C=C(C)C(=O)OCCOCCOCCCC",7.350924615148818,"C=C(C)C(=O)OCCOCCOCCCC",1.9389999999999998,44.760000000000005,230.151809184,4,0,10,0,4,0,4,16,38,0,0,0,0,0,0,0,0,0,0,0,0.75
"A-1327","4-[1,1,1,3,3,3-hexafluoro-2-(4-hydroxyphenyl)propan-2-yl]phenol",-3.1795029693,"Oc1ccc(C(c2ccc(O)cc2)(C(F)(F)F)C(F)(F)F)cc1","Oc1ccc(C(c2ccc(O)cc2)(C(F)(F)F)C(F)(F)F)cc1",32.377594882476316,"Oc1ccc(C(c2ccc(O)cc2)(C(F)(F)F)C(F)(F)F)cc1",4.5085000000000015,40.46,336.05849888,2,2,2,2,2,0,8,23,33,0,2,2,0,0,0,0,0,2,0,0,0.2
"A-1328","1-(naphthalen-1-yl)ethan-1-one",-2.8846346488,"CC(=O)c1cccc2ccccc12","CC(=O)c1cccc2ccccc12",34.90582264282644,"CC(=O)c1cccc2ccccc12",3.0424000000000015,17.07,170.07316494,1,0,1,0,1,0,1,13,23,0,2,2,0,0,0,0,0,2,0,0,0.08333333333333333
"A-1329","4-(propan-2-yl)aniline",-1.7858311962,"CC(C)c1ccc(N)cc1","CC(C)c1ccc(N)cc1",16.36951276530411,"CC(C)c1ccc(N)cc1",2.3922000000000008,26.02,135.104799416,1,2,1,1,1,0,1,10,23,0,1,1,0,0,0,0,0,1,0,0,0.3333333333333333
"A-1333","4-methoxyaniline",-0.7480293677,"COc1ccc(N)cc1","COc1ccc(N)cc1",19.726515064097907,"COc1ccc(N)cc1",1.2773999999999999,35.25,123.068413908,2,2,1,1,2,0,2,9,18,0,1,1,0,0,0,0,0,1,0,0,0.14285714285714285
"A-1335","2-methoxy-5-nitroaniline",-1.8832793564,"COc1ccc([N+](=O)[O-])cc1N","COc1ccc([N+](=O)[O-])cc1N",29.97878158714665,"COc1ccc([N+](=O)[O-])cc1N",1.1855999999999998,78.39,168.053492116,5,2,2,1,4,0,5,12,20,0,1,1,0,0,0,0,0,1,0,0,0.14285714285714285
"A-1336","prop-2-en-1-yl 2-methylprop-2-enoate",-1.7584817871,"C=CCOC(=O)C(=C)C","C=CCOC(=O)C(=C)C",-23.664300224963316,"C=CCOC(=O)C(=C)C",1.2917,26.3,126.06807956,2,0,3,0,2,0,2,9,19,0,0,0,0,0,0,0,0,0,0,0,0.2857142857142857
"A-1339","2,6-di-tert-butyl-4-(hydroxymethyl)phenol",-4.0127821042,"CC(C)(C)c1cc(CO)cc(C(C)(C)C)c1O","CC(C)(C)c1cc(CO)cc(C(C)(C)C)c1O",26.06909090959517,"CC(C)(C)c1cc(CO)cc(C(C)(C)C)c1O",3.479500000000003,40.46,236.177630008,2,2,1,2,2,0,2,17,41,0,1,1,0,0,0,0,0,1,0,0,0.6
"A-1341","[2-(3-methylbutoxy)ethyl]benzene",-3.9337357827,"CC(C)CCOCCc1ccccc1","CC(C)CCOCCc1ccccc1",20.445177346229862,"CC(C)CCOCCc1ccccc1",3.291800000000002,9.23,192.15141526,1,0,6,0,1,0,1,14,34,0,1,1,0,0,0,0,0,1,0,0,0.5384615384615384
"A-1343","2-hydroxynaphthalene-1-carbaldehyde",-3.8935675896,"O=Cc1c(O)ccc2ccccc12","O=Cc1c(O)ccc2ccccc12",30.339042378705773,"O=Cc1c(O)ccc2ccccc12",2.3579,37.3,172.052429496,2,1,1,1,2,0,2,13,21,0,2,2,0,0,0,0,0,2,0,0,0
"A-1345","5-nitropyrimidine-2,4,6-triamine",-3.8454729507,"Nc1nc(N)c(N=O)c(N)n1","Nc1nc(N)c(N=O)c(N)n1",-4.2693035963878385,"Nc1nc(N)c(N=O)c(N)n1",-0.3789000000000002,133.26999999999998,154.060308812,7,6,1,3,7,0,7,11,17,0,1,1,0,0,1,0,0,0,0,0,0
"A-1348","2-methoxy-4-(methoxymethyl)phenol",-1.8934476814,"COCc1ccc(O)c(OC)c1","COCc1ccc(O)c(OC)c1",20.95608397036206,"COCc1ccc(O)c(OC)c1",1.5472,38.69,168.078644244,3,1,3,1,3,0,3,12,24,0,1,1,0,0,0,0,0,1,0,0,0.3333333333333333
"A-1349","3-pentyloxan-4-yl acetate",-2.9987958883,"CCCCCC1COCCC1OC(C)=O","CCCCCC1COCCC1OC(C)=O",-4.509893478496464,"CCCCCC1COCCC1OC(=O)C",2.5349000000000004,35.53,214.156894564,3,0,5,0,3,0,3,15,37,2,1,0,1,1,0,1,1,0,0,0,0.9166666666666666
"A-1350","4-[(E)-2-phenyldiazen-1-yl]benzene-1,3-diamine",-2.9976655605,"Nc1ccc(N=Nc2ccccc2)c(N)c1","Nc1ccc(N=Nc2ccccc2)c(N)c1",55.5597387136597,"Nc1ccc(N=Nc2ccccc2)c(N)c1",3.2664,76.75999999999999,212.106196384,4,4,2,2,4,0,4,16,28,0,2,2,0,0,0,0,0,2,0,0,0
"A-1351","2-tert-Butyl-4-methoxyphenol",-2.9274884417,"COc1ccc(O)c(C(C)(C)C)c1","COc1ccc(O)c(C(C)(C)C)c1",27.500346437194708,"COc1ccc(O)c(C(C)(C)C)c1",2.6983000000000006,29.46,180.115029752,2,1,1,1,2,0,2,13,29,0,1,1,0,0,0,0,0,1,0,0,0.45454545454545453
"A-1352","4-piperidin-4-ylmorpholine",-2.9027228224,"C1CC([NH+]2CCOCC2)CC[NH2+]1","C1CC([NH+]2CCOCC2)CC[NH2+]1",103.06114945508678,"C1CC([NH+]2CCOCC2)CC[NH2+]1",-2.3726999999999965,30.28,172.15646610017998,3,3,1,2,1,0,3,12,32,0,2,0,2,2,0,2,2,0,0,0,1
"A-1355","3,4-dihydroxy-5-nitrobenzaldehyde",-1.937833911,"O=Cc1cc(O)c([O-])c([N+](=O)[O-])c1","O=Cc1cc(O)c([O-])c([N+](=O)[O-])c1",62.58484775964188,"O=Cc1cc(O)c([O-])c([N+](=O)[O-])c1",0.18649999999999983,103.5,182.00949580791,6,1,2,1,5,0,6,13,17,0,1,1,0,0,0,0,0,1,0,0,0
"A-1357","ethyl 2-methyl-2-phenylpropanoate",-3.045838317,"CCOC(=O)C(C)(C)c1ccccc1","CCOC(=O)C(C)(C)c1ccccc1",23.946054831324698,"CCOC(=O)C(C)(C)c1ccccc1",2.5273000000000003,26.3,192.115029752,2,0,3,0,2,0,2,14,30,0,1,1,0,0,0,0,0,1,0,0,0.4166666666666667
"A-1360","4-methyl-2-nitroaniline",-1.860061225,"Cc1ccc(N)c([N+](=O)[O-])c1","Cc1ccc(N)c([N+](=O)[O-])c1",23.533916488456203,"Cc1ccc(N)c([N+](=O)[O-])c1",1.48542,69.16,152.058577496,4,2,1,1,3,0,4,11,19,0,1,1,0,0,0,0,0,1,0,0,0.14285714285714285
"A-1362","methyl benzoate",-1.8117983509,"COC(=O)c1ccccc1","COC(=O)c1ccccc1",8.847952738769788,"COC(=O)c1ccccc1",1.4732,26.3,136.052429496,2,0,1,0,2,0,2,10,18,0,1,1,0,0,0,0,0,1,0,0,0.125
"A-1363","1,1-dimethoxyoctane",-2.9180054187,"CCCCCCCC(OC)OC","CCCCCCCC(OC)OC",-15.216559903294314,"CCCCCCCC(OC)OC",2.9658000000000015,18.46,174.161979944,2,0,8,0,2,0,2,12,34,0,0,0,0,0,0,0,0,0,0,0,1
"A-1364","1,4,7,10-tetrazacyclododecane",-0.0310204156,"C1CNCC[NH2+]CCNCCN1","C1CNCC[NH2+]CCNCCN1",43.403254124915755,"C1CNCC[NH2+]CCNCCN1",-2.667799999999997,52.7,173.17607309208998,4,5,0,4,3,0,4,12,33,0,1,0,1,1,0,1,1,0,0,0,1
"A-1366","undec-10-enal",-3.8931862,"C=CCCCCCCCCC=O","C=CCCCCCCCCC=O",-1.2089703064377466,"C=CCCCCCCCCC=O",3.4921000000000024,17.07,168.15141526,1,0,9,0,1,0,1,12,32,0,0,0,0,0,0,0,0,0,0,0,0.7272727272727273
"A-1370","2-[4-(2-methylpropyl)phenyl]propanoic acid",-3.9922483547,"CC(C)Cc1ccc(C(C)C(=O)[O-])cc1","CC(C)Cc1ccc(C(C)C(=O)[O-])cc1",44.70920935733197,"CC(C)Cc1ccc(C(C)C(=O)[O-])cc1",1.7385,40.129999999999995,205.12340336391,2,0,4,0,2,0,2,15,32,1,1,1,0,0,0,0,0,1,0,0,0.46153846153846156
"A-1376","N-ethyl-N'-isopropyl-6-(methylsulfanyl)-1,3,5-triazine-2,4-diamine",-3.0470399572,"CCNc1nc(NC(C)C)nc(SC)n1","CCNc1nc(NC(C)C)nc(SC)n1",-187.41829380827483,"CCNc1nc(NC(C)C)nc(SC)n1",1.8455999999999997,62.730000000000004,227.12046654399998,5,2,5,2,6,0,6,15,32,0,1,1,0,0,1,0,0,0,0,0,0.6666666666666666
"A-1377","1-(3-methoxyphenyl)ethan-1-one",-1.8691073865,"COc1cccc(C(C)=O)c1","COc1cccc(C(C)=O)c1",24.504834931516502,"COc1cccc(C(=O)C)c1",1.8978,26.3,150.06807956,2,0,2,0,2,0,2,11,21,0,1,1,0,0,0,0,0,1,0,0,0.2222222222222222
"A-1381","1H-benzimidazole",-1.769197233,"c1ccc2[nH]cnc2c1","c1ccc2[nH]cnc2c1",13.729164713979461,"c1ccc2[nH]cnc2c1",1.5629,28.68,118.053098192,2,1,0,1,1,0,2,9,15,0,2,2,0,0,1,0,0,1,0,0,0
"A-1382","cyanuric acid",-1.8076460763,"O=c1[nH]c(=O)[nH]c(=O)[nH]1","O=C1NC(=O)NC(=O)N1",-87.6847695694608,"O=c1[nH]c(=O)[nH]c(=O)[nH]1",-0.8712,87.30000000000001,129.017440956,6,3,0,3,3,6,6,9,12,0,1,0,1,1,0,1,1,0,0,0,0
"A-1390","1,10-bis(2-ethylhexyl) decanedioate",-3.3290743264,"CCCCC(CC)COC(=O)CCCCCCCCC(=O)OCC(CC)CCCC","CCCCC(CC)COC(=O)CCCCCCCCC(=O)OCC(CC)CCCC",-13.123104089404684,"CCCCC(CC)COC(=O)CCCCCCCCC(=O)OCC(CC)CCCC",7.626400000000009,52.60000000000001,426.37091007999993,4,0,21,0,4,0,4,30,80,2,0,0,0,0,0,0,0,0,0,0,0.9230769230769231
"A-1397","Spironolactone intermediate",-4.2250037793,"C[C@]12CC[C@H]3[C@@H](CCC4=CC(=O)CC[C@@]43C)[C@@H]1CC[C@@]21CCC(=O)O1","C[C@]12CC[C@H]3[C@@H](CCC4=CC(=O)CC[C@@]43C)[C@@H]1CC[C@@]21CCC(=O)O1",52.26993477135204,"C[C@]12CC[C@H]3[C@@H](CCC4=CC(=O)CC[C@]34C)[C@@H]1CC[C@]12CCC(=O)O1",4.594100000000004,43.370000000000005,342.21949481999997,3,0,0,0,3,0,3,25,55,6,5,0,4,5,0,1,1,0,3,4,0.8181818181818182
"A-1399","2,2-bis({[(2-methylprop-2-enoyl)oxy]methyl})butyl 2-methylprop-2-enoate",-4.2262342969,"C=C(C)C(=O)OCC(CC)(COC(=O)C(=C)C)COC(=O)C(=C)C","C=C(C)C(=O)OCC(CC)(COC(=O)C(=C)C)COC(=O)C(=C)C",-54.4883815895434,"C=C(C)C(=O)OCC(CC)(COC(=O)C(=C)C)COC(=O)C(=C)C",2.7407000000000012,78.9,338.172938552,6,0,10,0,6,0,6,24,50,0,0,0,0,0,0,0,0,0,0,0,0.5
"A-1400","3-methyl-4-propan-2-ylphenol",-2.854511354,"Cc1cc(O)ccc1C(C)C","Cc1cc(O)ccc1C(C)C",20.236694844587905,"Cc1cc(O)ccc1C(C)C",2.824020000000001,20.23,150.104465068,1,1,1,1,1,0,1,11,25,0,1,1,0,0,0,0,0,1,0,0,0.4
"A-1401","1-Isopropyl-2-methoxy-4-methylcyclohexane",-3.9301744515,"COC1CC(C)CCC1C(C)C","COC1CC(C)CCC1C(C)C",20.367338403083437,"COC1CC(C)CCC1C(C)C",3.093600000000002,9.23,170.167065324,1,0,2,0,1,0,1,12,34,3,1,0,1,1,0,0,0,0,1,1,1
"A-1404","3,7,7-trimethylbicyclo[4.1.0]hept-3-ene",-4.6704052705,"CC1=CCC2C(C1)C2(C)C","CC1=CCC2C(C1)C2(C)C",23.263877065611027,"CC1=CCC2C(C1)C2(C)C",2.9987000000000013,0,136.125200512,0,0,0,0,0,0,0,10,26,2,2,0,1,2,0,0,0,0,1,2,0.8
"A-1405","(4Z)-cyclopentadec-4-en-1-one",-4.8831871131,"O=C1CCC=CCCCCCCCCCC1","O=C1CCC=CCCCCCCCCCC1",2.147966665591796,"O=C1CCC=CCCCCCCCCCC1",4.806500000000004,17.07,222.198365452,1,0,0,0,1,0,1,16,42,0,1,0,0,1,0,0,0,0,0,1,0.8
"A-1407","ditolyl ether",-4.8439277143,"Cc1ccccc1Oc1ccccc1C","Cc1ccccc1Oc1ccccc1C",42.55099303431661,"Cc1ccccc1Oc1ccccc1C",4.095740000000003,9.23,198.104465068,1,0,2,0,1,0,1,15,29,0,2,2,0,0,0,0,0,2,0,0,0.14285714285714285
"A-1409","1-(propan-2-yl)naphthalene; 2-(propan-2-yl)naphthalene",-4.7823935551,"CC(C)c1cccc2ccccc12","CC(C)c1cccc2ccccc12",31.447599144446652,"CC(C)c1cccc2ccccc12",3.9632000000000023,0,170.109550448,0,0,1,0,0,0,0,13,27,0,2,2,0,0,0,0,0,2,0,0,0.23076923076923078