"ID","Name","Solubility","SMILES Canonical","Smiles (Optimized Geometry)","Energy","Smiles","SlogP","TPSA","ExactMW","NumLipinskiHBA","NumLipinskiHBD","NumRotatableBonds","NumHBD","NumHBA","NumAmideBonds","NumHeteroAtoms","NumHeavyAtoms","NumAtoms","NumStereocenters","NumRings","NumAromaticRings","NumSaturatedRings","NumAliphaticRings","NumAromaticHeterocycles","NumSaturatedHeterocycles","NumAliphaticHeterocycles","NumAromaticCarbocycles","NumSaturatedCarbocycles","NumAliphaticCarbocycles","FractionCSP3"
"A-1410","2-(dimethylamino)-2-[(4-methylphenyl)methyl]-1-[4-(morpholin-4-yl)phenyl]butan-1-one",-5.1332331523,"CCC(Cc1ccc(C)cc1)(C(=O)c1ccc(N2CCOCC2)cc1)[NH+](C)C","CCC(Cc1ccc(C)cc1)(C(=O)c1ccc(N2CCOCC2)cc1)[NH+](C)C",129.52331180745298,"CCC(Cc1ccc(C)cc1)(C(=O)c1ccc(N2CCOCC2)cc1)[NH+](C)C",2.550320000000001,33.980000000000004,381.25365471609,4,1,7,1,3,0,4,28,61,1,3,2,1,1,0,1,1,2,0,0,0.4583333333333333
"A-1411","4-methoxy-3-nitro-N-phenylbenzamide",-4.9878258088,"COc1ccc(C(=O)Nc2ccccc2)cc1[N+](=O)[O-]","COc1ccc(C(=O)Nc2ccccc2)cc1[N+](=O)[O-]",53.07126297950288,"COc1ccc(C(=O)Nc2ccccc2)cc1[N+](=O)[O-]",2.8557000000000015,81.47,272.079706864,6,1,4,1,4,1,6,20,32,0,2,2,0,0,0,0,0,2,0,0,0.07142857142857142
"A-1420","1-(2,3,8,8-tetramethyl-1,3,4,5,6,7-hexahydronaphthalen-2-yl)ethanone",-4.9417913147,"CC(=O)C1(C)CC2=C(CCCC2(C)C)CC1C","CC(=O)C1(C)CC2=C(CCCC2(C)C)CC1C",24.663881123339692,"CC(=O)C1(C)CC2=C(CCCC2(C)C)CC1C",4.518300000000004,17.07,234.198365452,1,0,1,0,1,0,1,17,43,2,2,0,0,2,0,0,0,0,0,2,0.8125
"A-1423","dihexyl adipate",-5.0826003485,"CCCCCCOC(=O)CCCCC(=O)OCCCCCC","CCCCCCOC(=O)CCCCC(=O)OCCCCCC",-21.171233556391236,"CCCCCCOC(=O)CCCCC(=O)OCCCCCC",4.7938000000000045,52.60000000000001,314.245709568,4,0,15,0,4,0,4,22,56,0,0,0,0,0,0,0,0,0,0,0,0.8888888888888888
"A-1429","2-(3,8-dimethyl-1,2,3,4,5,6,7,8-octahydroazulen-5-yl)propan-2-yl acetate",-5.0226025122,"CC(=O)OC(C)(C)C1CCC(C)C2=C(C1)C(C)CC2","CC(=O)OC(C)(C)C1CCC(C)C2=C(C1)C(C)CC2",21.870683255547064,"CC(=O)OC(C)(C)C1CCC(C)C2=C(C1)C(C)CC2",4.490800000000005,26.3,264.208930136,2,0,2,0,2,0,2,19,47,3,2,0,0,2,0,0,0,0,0,2,0.8235294117647058
"A-1431","11-ethyl-5-methylpentadecanoic acid",-5.0561178371,"CCCCC(CC)CCCCCC(C)CCCC(=O)[O-]","CCCCC(CC)CCCCCC(C)CCCC(=O)[O-]",14.712262249923352,"CCCCC(CC)CCCCCC(C)CCCC(=O)[O-]",4.709600000000004,40.129999999999995,283.26425393991,2,0,14,0,2,0,2,20,55,2,0,0,0,0,0,0,0,0,0,0,0.9444444444444444
"A-1432","3,7,11-trimethyldodec-1-yn-3-ol",-4.953059619,"C#CC(C)(O)CCCC(C)CCCC(C)C","C#CC(C)(O)CCCC(C)CCCC(C)C",9.421767194926348,"C#CC(C)(O)CCCC(C)CCCC(C)C",4.003300000000003,20.23,224.21401551600002,1,1,8,1,1,0,1,16,44,2,0,0,0,0,0,0,0,0,0,0,0.8666666666666667
"A-1436","1,1,2-trifluoro-2-(pentafluoroethoxy)ethene",-4.9542967929,"FC(F)=C(F)OC(F)(F)C(F)(F)F","FC(F)=C(F)OC(F)(F)C(F)(F)F",79.67157485143537,"FC(=C(F)OC(F)(F)C(F)(F)F)F",3.1932,9.23,215.98214038,1,0,2,0,1,0,9,13,13,0,0,0,0,0,0,0,0,0,0,0,0.5
"A-1440","2,4,4-trimethylpent-1-ene",-4.688326948,"C=C(C)CC(C)(C)C","C=C(C)CC(C)(C)C",3.868803256215945,"C=C(C)CC(C)(C)C",2.9987000000000013,0,112.12520051199999,0,0,1,0,0,0,0,8,24,0,0,0,0,0,0,0,0,0,0,0,0.75
"A-1447","2,5-bis(tert-butylperoxy)-2,5-dimethylhex-3-yne",-5.1145685291,"CC(C)(C)OOC(C)(C)C#CC(C)(C)OOC(C)(C)C","CC(C)(C)OOC(C)(C)C#CC(C)(C)OOC(C)(C)C",38.12312449559614,"CC(C)(C)OOC(C)(C)C#CC(C)(C)OOC(C)(C)C",4.0404000000000035,36.92,286.21440944,4,0,4,0,4,0,4,20,50,0,0,0,0,0,0,0,0,0,0,0,0.875
"A-1448","2-butyloctanoic acid",-4.9593059667,"CCCCCCC(CCCC)C(=O)[O-]","CCCCCCC(CCCC)C(=O)[O-]",9.346500079897494,"CCCCCCC(CCCC)C(=O)[O-]",2.5131000000000006,40.129999999999995,199.17035355591,2,0,9,0,2,0,2,14,37,1,0,0,0,0,0,0,0,0,0,0,0.9166666666666666
"A-1449","2-ethylhexyl 4-aminobenzoate",-5.0543936585,"CCCCC(CC)COC(=O)c1ccc(N)cc1","CCCCC(CC)COC(=O)c1ccc(N)cc1",15.825479703760564,"CCCCC(CC)COC(=O)c1ccc(N)cc1",3.642000000000002,52.32,249.172878976,3,2,7,1,3,0,3,18,41,1,1,1,0,0,0,0,0,1,0,0,0.5333333333333333
"A-1452","butyl 4,4-bis(tert-butylperoxy)pentanoate",-5.1898813447,"CCCCOC(=O)CCC(C)(OOC(C)(C)C)OOC(C)(C)C","CCCCOC(=O)CCC(C)(OOC(C)(C)C)OOC(C)(C)C",14.252794369443993,"CCCCOC(=O)CCC(C)(OOC(C)(C)C)OOC(C)(C)C",4.319500000000004,63.22000000000001,334.235538808,6,0,10,0,6,0,6,23,57,0,0,0,0,0,0,0,0,0,0,0,0.9411764705882353
"A-1462","decyl acetate",-4.9857583021,"CCCCCCCCCCOC(C)=O","CCCCCCCCCCOC(C)=O",-12.297336297290173,"CCCCCCCCCCOC(=O)C",3.6902000000000026,26.3,200.177630008,2,0,9,0,2,0,2,14,38,0,0,0,0,0,0,0,0,0,0,0,0.9166666666666666
"A-1464","2-{methyl[(nonafluorobutyl)sulfonyl]amino}ethyl acrylate",-5.3087460931,"C=CC(=O)OCCN(C)S(=O)(=O)C(F)(F)C(F)(F)C(F)(F)C(F)(F)F","C=CC(=O)OCCN(C)S(=O)(=O)C(F)(F)C(F)(F)C(F)(F)C(F)(F)F",34.82871871098456,"C=CC(=O)OCCN(C)S(=O)(=O)C(F)(F)C(F)(F)C(F)(F)C(F)(F)F",2.4029000000000007,63.68,411.01868278,5,0,8,0,4,0,15,25,35,0,0,0,0,0,0,0,0,0,0,0,0.7
"A-1466","2-phenylhexanenitrile",-3.6623544532,"CCCCC(C#N)c1ccccc1","CCCCC(C#N)c1ccccc1",21.677523555902695,"CCCCC(C#N)c1ccccc1",3.4839800000000025,23.79,173.12044948,1,0,4,0,1,0,1,13,28,1,1,1,0,0,0,0,0,1,0,0,0.4166666666666667
"A-1468","2-methyldodecan-1-ol",-5.0007940326,"CC(C)CCCCCCCCCCO","CC(C)CCCCCCCCCCO",0.39479661104495434,"CC(C)CCCCCCCCCCO",4.145600000000004,20.23,200.21401551600002,1,1,10,1,1,0,1,14,42,0,0,0,0,0,0,0,0,0,0,0,1
"A-1470","N-(2-ethoxyphenyl)-3-hydroxynaphthalene-2-carboxamide",-5.1866018088,"CCOc1ccccc1NC(=O)c1cc2ccccc2cc1O","CCOc1ccccc1NC(=O)c1cc2ccccc2cc1O",56.64065371302248,"CCOc1ccccc1NC(=O)c1cc2ccccc2cc1O",4.196400000000003,58.56,307.120843404,4,2,4,2,3,1,4,23,40,0,3,3,0,0,0,0,0,3,0,0,0.10526315789473684
"A-1473","diisopropyl sebacate",-5.1559612143,"CC(C)OC(=O)CCCCCCCCC(=O)OC(C)C","CC(C)OC(=O)CCCCCCCCC(=O)OC(C)C",-17.516040302299213,"CC(C)OC(=O)CCCCCCCCC(=O)OC(C)C",4.010400000000003,52.60000000000001,286.21440944,4,0,11,0,4,0,4,20,50,0,0,0,0,0,0,0,0,0,0,0,0.875
"A-1474","hexyl 2-hydroxybenzoate",-5.0458782076,"CCCCCCOC(=O)c1ccccc1O","CCCCCCOC(=O)c1ccccc1O",10.225845809546932,"CCCCCCOC(=O)c1ccccc1O",3.129300000000002,46.53,222.125594436,3,1,6,1,3,0,3,16,34,0,1,1,0,0,0,0,0,1,0,0,0.46153846153846156
"A-1475","octadecane-1,12-diol",-5.1560946306,"CCCCCCC(O)CCCCCCCCCCCO","CCCCCCC(O)CCCCCCCCCCCO",2.7925908084732716,"CCCCCCC(O)CCCCCCCCCCCO",5.211000000000006,40.46,286.287180456,2,2,16,2,2,0,2,20,58,1,0,0,0,0,0,0,0,0,0,0,1
"A-1481","3-methylbutyl propanoate",-2.870073641,"CCC(=O)OCCC(C)C","CCC(=O)OCCC(C)C",-9.639661138154205,"CCC(=O)OCCC(C)C",1.9857,26.3,144.115029752,2,0,4,0,2,0,2,10,26,0,0,0,0,0,0,0,0,0,0,0,0.875
"A-1482","(2E)-1-(2,6,6-trimethylcyclohex-1-en-1-yl)but-2-en-1-one",-3.0592783722,"C=C[C@]1(C)CC[C@@H](C(C)(C)O)C[C@H]1C(=C)C","C=C[C@]1(C)CC[C@@H](C(C)(C)O)C[C@H]1C(=C)C",27.477572858612042,"C=C[C@]1(C)CC[C@@H](C(C)(C)O)C[C@H]1C(=C)C",3.942000000000003,20.23,222.198365452,1,1,3,1,1,0,1,16,42,3,1,0,1,1,0,0,0,0,1,1,0.7333333333333333
"A-1484","oct-1-en-3-ol",-1.8219317146,"C=CC(O)CCCCC","C=CC(O)CCCCC",-0.18380576579717556,"C=CC(O)CCCCC",2.1136,20.23,128.120115132,1,1,5,1,1,0,1,9,25,1,0,0,0,0,0,0,0,0,0,0,0.75
"A-1488","(8R,9S,13S,14S,17S)-13-ethyl-3-methoxy-6,7,8,9,11,12,14,15,16,17-decahydrocyclopenta[a]phenanthren-17-ol",-4.875700653,"CC[C@]12CC[C@@H]3c4ccc(OC)cc4CC[C@H]3[C@@H]1CC[C@@H]2O","CC[C@]12CC[C@@H]3c4ccc(OC)cc4CC[C@H]3[C@@H]1CC[C@@H]2O",64.30249633073318,"CC[C@]12CC[C@@H]3c4ccc(OC)cc4CC[C@H]3[C@@H]1CC[C@@H]2O",4.302300000000004,29.46,300.208930136,2,1,2,1,2,0,2,22,50,5,4,1,2,3,0,0,0,1,2,3,0.7
"A-1489","4-[2-(4-hydroxycyclohexyl)propan-2-yl]cyclohexan-1-ol",-3.0976097488,"CC(C)(C1CCC(O)CC1)C1CCC(O)CC1","CC(C)(C1CCC(O)CC1)C1CCC(O)CC1",35.37343692418719,"CC(C)(C1CCC(O)CC1)C1CCC(O)CC1",3.1148000000000016,40.46,240.208930136,2,2,2,2,2,0,2,17,45,0,2,0,2,2,0,0,0,0,2,2,1
"A-1496","3-(methoxycarbonyl)-5-nitrobenzoic acid",-2.0737299237,"COC(=O)c1cc(C(=O)[O-])cc([N+](=O)[O-])c1","COC(=O)c1cc(C(=O)[O-])cc([N+](=O)[O-])c1",17.919767893835424,"COC(=O)c1cc(C(=O)[O-])cc([N+](=O)[O-])c1",-0.2551000000000002,109.57000000000002,224.02006049191002,7,0,3,0,6,0,7,16,22,0,1,1,0,0,0,0,0,1,0,0,0.1111111111111111
"A-1498","2-[(1Z)-({2-[(E)-[(2-hydroxyphenyl)methylidene]amino]propyl}imino)methyl]phenol",-3.172023424,"CC(CNC=C1C=CC=CC1=O)[NH2+]C=C1C=CC=CC1=O","CC(CNC=C1C=CC=CC1=O)[NH2+]C=C1C=CC=CC1=O",5.941716665224277,"CC(CNC=C1C=CC=CC1=O)[NH2+]C=C1C=CC=CC1=O",0.6859000000000001,62.78,283.14410426809,4,3,5,2,3,0,4,21,40,1,2,0,0,2,0,0,0,0,0,2,0.17647058823529413
"A-1501","4-[4-(propan-2-yloxy)benzenesulfonyl]phenol",-4.1714457851,"CC(C)Oc1ccc(S(=O)(=O)c2ccc([O-])cc2)cc1","CC(C)Oc1ccc(S(=O)(=O)c2ccc([O-])cc2)cc1",26.9524879908856,"CC(C)Oc1ccc(S(=O)(=O)c2ccc([O-])cc2)cc1",2.3802000000000003,66.43,291.06965353991,4,0,4,0,4,0,5,20,35,0,2,2,0,0,0,0,0,2,0,0,0.2
"A-1506","3,5,5-trimethylhexyl acetate",-3.9891678317,"CC(=O)OCCC(C)CC(C)(C)C","CC(=O)OCCC(C)CC(C)(C)C",-6.00413663382502,"CC(=O)OCCC(C)CC(C)(C)C",3.0119000000000016,26.3,186.161979944,2,0,4,0,2,0,2,13,35,1,0,0,0,0,0,0,0,0,0,0,0.9090909090909091
"A-1509","oxolan-2-ylmethyl 2-methylprop-2-enoate",-0.9524550039,"C=C(C)C(=O)OCC1CCCO1","C=C(C)C(=O)OCC1CCCO1",-2.4190097356018843,"C=C(C)C(=O)OCC1CCCO1",1.2847,35.53,170.094294308,3,0,3,0,3,0,3,12,26,1,1,0,1,1,0,1,1,0,0,0,0.6666666666666666
"A-1510","estr-4-ene-3,17-dione",-3.1565006621,"C[C@]12CC[C@@H]3[C@H]4CCC(=O)C=C4CC[C@H]3[C@@H]1CCC2=O","C[C@]12CC[C@@H]3[C@H]4CCC(=O)C=C4CC[C@H]3[C@@H]1CCC2=O",47.477740313644105,"C[C@]12CC[C@@H]3[C@H]4CCC(=O)C=C4CC[C@H]3[C@@H]1CCC2=O",3.697300000000003,34.14,272.177630008,2,0,0,0,2,0,2,20,44,5,4,0,3,4,0,0,0,0,3,4,0.7777777777777778
"A-1511","benzyl 2-methylprop-2-enoate",-2.9682045412,"C=C(C)C(=O)OCc1ccccc1","C=C(C)C(=O)OCc1ccccc1",-12.451308446870934,"C=C(C)C(=O)OCc1ccccc1",2.3059000000000003,26.3,176.083729624,2,0,3,0,2,0,2,13,25,0,1,1,0,0,0,0,0,1,0,0,0.18181818181818182
"A-1513","diethyl carbonate",-0.7982097075,"CCOC(=O)OCC","CCOC(=O)OCC",-36.65300585664288,"CCOC(=O)OCC",1.1794,35.53,118.06299418,3,0,2,0,3,0,3,8,18,0,0,0,0,0,0,0,0,0,0,0,0.8
"A-1515","(2E)-1-(2,6,6-trimethylcyclohexa-1,3-dien-1-yl)but-2-en-1-one",-3.0052489876,"CC=CC(=O)C1=C(C)C=CCC1(C)C","CC=CC(=O)C1=C(C)C=CCC1(C)C",30.28071978233948,"CC=CC(=O)C1=C(C)C=CCC1(C)C",3.4342000000000024,17.07,190.135765196,1,0,2,0,1,0,1,14,32,0,1,0,0,1,0,0,0,0,0,1,0.46153846153846156
"A-1517","(5S)-2-methyl-5-(prop-1-en-2-yl)cyclohex-2-en-1-one",-1.9026536597,"C=C(C)[C@H]1CC=C(C)C(=O)C1","C=C(C)[C@H]1CC=C(C)C(=O)C1",7.152282829325441,"C=C(C)[C@H]1CC=C(C)C(=O)C1",2.4879000000000007,17.07,150.104465068,1,0,1,0,1,0,1,11,25,1,1,0,0,1,0,0,0,0,0,1,0.5
"A-1518","octylphosphonic acid",-3.0148095518,"CCCCCCCCP(=O)([O-])[O-]","CCCCCCCCP(=O)([O-])[O-]",6.754195074654379,"CCCCCCCCP(=O)([O-])[O-]",1.2606,63.19,192.09262819382,3,0,7,0,3,0,4,12,29,0,0,0,0,0,0,0,0,0,0,0,1
"A-1519","calcium dimagnesium(2+) ion tetrahydroxide oxidandiide",-2.2130969417,"C[C@]12CC[C@H]3[C@@H](CCC4=CC(=O)CC[C@@]43C)[C@@H]1C(O)CC2=O","C[C@]12CC[C@H]3[C@@H](CCC4=CC(=O)CC[C@@]43C)[C@@H]1C(O)CC2=O",44.382847227696956,"C[C@]12CC[C@H]3[C@@H](CCC4=CC(=O)CC[C@]34C)[C@@H]1C(O)CC2=O",3.058200000000001,54.37,302.18819469199997,3,1,0,1,3,0,3,22,48,6,4,0,3,4,0,0,0,0,3,4,0.7894736842105263
"A-1523","3-methylbutyl butanoate",-2.9328521233,"CCCC(=O)OCCC(C)C","CCCC(=O)OCCC(C)C",-9.791586621393414,"CCCC(=O)OCCC(C)C",2.375800000000001,26.3,158.130679816,2,0,5,0,2,0,2,11,29,0,0,0,0,0,0,0,0,0,0,0,0.8888888888888888
"A-1524","3-(cyclohexylamino)propane-1-sulfonic acid",-3.0802067631,"O=S(=O)([O-])CCC[NH2+]C1CCCCC1","O=S(=O)([O-])CCC[NH2+]C1CCCCC1",-96.50950118790219,"O=S(=O)([O-])CCC[NH2+]C1CCCCC1",-0.18219999999999903,73.81,221.108564468,4,2,5,1,3,0,5,14,33,0,1,0,1,1,0,0,0,0,1,1,1
"A-1528","(2E)-2-(phenylmethylidene)heptanal",-3.0466584175,"CCCCCC(C=O)=Cc1ccccc1","CCCCCC(C=O)=Cc1ccccc1",16.698611790159404,"CCCCCC(=Cc1ccccc1)C=O",3.8492000000000033,17.07,202.135765196,1,0,6,0,1,0,1,15,33,0,1,1,0,0,0,0,0,1,0,0,0.35714285714285715
"A-1538","5-hydroxyisophthalic acid",-2.005111367,"O=C([O-])c1cc(O)cc(C(=O)[O-])c1","O=C([O-])c1cc(O)cc(C(=O)[O-])c1",75.11964600667146,"O=C([O-])c1cc(O)cc(C(=O)[O-])c1",-1.8808,100.49000000000001,180.00697038782002,5,1,2,1,5,0,5,13,17,0,1,1,0,0,0,0,0,1,0,0,0
"A-1540","1,6-bis(propan-2-yl) hexanedioate",-3.1070289759,"CC(C)OC(=O)CCCCC(=O)OC(C)C","CC(C)OC(=O)CCCCC(=O)OC(C)C",-20.957575262127975,"CC(C)OC(=O)CCCCC(=O)OC(C)C",2.45,52.60000000000001,230.151809184,4,0,7,0,4,0,4,16,38,0,0,0,0,0,0,0,0,0,0,0,0.8333333333333334
"A-1541","2,2,5-trimethyl-5-pentylcyclopentanone",-4.0165337106,"CCCCCC1(C)CCC(C)(C)C1=O","CCCCCC1(C)CCC(C)(C)C1=O",17.20620545523538,"CCCCCC1(C)CCC(C)(C)C1=O",3.962100000000003,17.07,196.182715388,1,0,4,0,1,0,1,14,38,1,1,0,1,1,0,0,0,0,1,1,0.9230769230769231
"A-1542","cyclododecanol",-3.9891177261,"OC1CCCCCCCCCCC1","OC1CCCCCCCCCCC1",9.039991934322329,"OC1CCCCCCCCCCC1",3.652000000000003,20.23,184.182715388,1,1,0,1,1,0,1,13,37,0,1,0,1,1,0,0,0,0,1,1,1
"A-1543","3,3,4,4,5,5,6,6,7,7,8,8,8-tridecafluorooctan-1-ol",-4.2870640225,"OCCC(F)(F)C(F)(F)C(F)(F)C(F)(F)C(F)(F)C(F)(F)F","OCCC(F)(F)C(F)(F)C(F)(F)C(F)(F)C(F)(F)C(F)(F)F",45.81238203798927,"OCCC(F)(F)C(F)(F)C(F)(F)C(F)(F)C(F)(F)C(F)(F)F",4.107600000000001,20.23,364.01328164000006,1,1,6,1,1,0,14,22,27,0,0,0,0,0,0,0,0,0,0,0,1
"A-1544","bis(2,2,6,6-tetramethylpiperidin-4-yl) decanedioate",-4.4077469895,"CC1(C)C[NH2+]CC(C)(C)C1OC(=O)CCCCCCCCC(=O)OC1C(C)(C)C[NH2+]CC1(C)C","CC1(C)C[NH2+]CC(C)(C)C1OC(=O)CCCCCCCCC(=O)OC1C(C)(C)C[NH2+]CC1(C)C",2.1496824356686752,"CC1(C)C[NH2+]CC(C)(C)C1OC(=O)CCCCCCCCC(=O)OC1C(C)(C)C[NH2+]CC1(C)C",3.189600000000002,85.82,482.4072610481799,6,4,11,2,4,0,6,34,88,0,2,0,2,2,0,2,2,0,0,0,0.9285714285714286
"A-1545","1,1,5-trimethylhept-6-en-1-yl acetate",-4.0301641261,"C=CC(C)CCCC(C)(C)OC(C)=O","C=CC(C)CCCC(C)(C)OC(C)=O",-2.147176248445515,"C=CC(C)CCCC(C)(C)OC(=O)C",3.320500000000002,26.3,198.161979944,2,0,6,0,2,0,2,14,36,1,0,0,0,0,0,0,0,0,0,0,0.75
"A-1547","1,2-bis(2-methylpropyl) cyclohexane-1,2-dicarboxylate",-4.1912351395,"CC(C)COC(=O)C1CCCCC1C(=O)OCC(C)C","CC(C)COC(=O)C1CCCCC1C(=O)OCC(C)C",-22.916436200886626,"CC(C)COC(=O)C1CCCCC1C(=O)OCC(C)C",3.191200000000002,52.60000000000001,284.198759376,4,0,6,0,4,0,4,20,48,2,1,0,1,1,0,0,0,0,1,1,0.875
"A-1549","3,3,5-trimethylcyclohexyl prop-2-enoate",-4.0304470853,"C=CC(=O)OC1CC(C)CC(C)(C)C1","C=CC(=O)OC1CC(C)CC(C)(C)C1",4.2147938957500735,"C=CC(=O)OC1CC(C)CC(C)(C)C1",2.9304000000000014,26.3,196.14632988,2,0,2,0,2,0,2,14,34,2,1,0,1,1,0,0,0,0,1,1,0.75
"A-1550","cyclohexyl(phenyl)methanone",-4.0147097346,"O=C(c1ccccc1)C1CCCCC1","O=C(c1ccccc1)C1CCCCC1",30.892309909361966,"O=C(c1ccccc1)C1CCCCC1",3.449600000000002,17.07,188.120115132,1,0,2,0,1,0,1,14,30,0,2,1,1,1,0,0,0,1,1,1,0.46153846153846156
"A-1556","methyl 2,4-dihydroxy-3,6-dimethylbenzoate",-4.037430925,"COC(=O)c1c(C)cc(O)c(C)c1O","COC(=O)c1c(C)cc(O)c(C)c1O",20.392309487382324,"COC(=O)c1c(C)cc(O)c(C)c1O",1.5012399999999997,66.76,196.073558864,4,2,1,2,4,0,4,14,26,0,1,1,0,0,0,0,0,1,0,0,0.3
"A-1562","4-methyl-1-(propan-2-yl)cyclohex-3-en-1-ol",-1.9409970697,"CC1=CCC(O)(C(C)C)CC1","CC1=CCC(O)(C(C)C)CC1",17.4390362641535,"CC1=CCC(O)(C(C)C)CC1",2.5037000000000003,20.23,154.135765196,1,1,1,1,1,0,1,11,29,1,1,0,0,1,0,0,0,0,0,1,0.8
"A-1564","1,4-dimethoxy-2-nitrobenzene",-3.0173250803,"COc1ccc(OC)c([N+](=O)[O-])c1","COc1ccc(OC)c([N+](=O)[O-])c1",41.164431160917395,"COc1ccc(OC)c([N+](=O)[O-])c1",1.6119999999999999,61.599999999999994,183.053157768,5,0,3,0,4,0,5,13,22,0,1,1,0,0,0,0,0,1,0,0,0.25
"A-1569","5-nitro-2,3-dihydro-1H-1,2,4-triazol-3-one",-0.8786253202,"O=c1nc([N+](=O)[O-])[nH][nH]1","O=C1N=C([N+](=O)[O-])NN1",44.651572049543624,"O=c1nc([N+](=O)[O-])[nH][nH]1",-1.1531,96.63,130.012689924,7,2,0,2,4,2,7,9,11,0,1,0,0,1,0,0,1,0,0,0,0
"A-1570","5-amino-6-methyl-2,3-dihydro-1H-1,3-benzodiazol-2-one",-1.9771384819,"Cc1cc2[nH]c(=O)[nH]c2cc1N","Cc1cc2c(cc1N)NC(=O)N2",20.275131026709012,"Cc1cc2c(cc1N)[nH]c(=O)[nH]2",1.5346199999999997,67.15,163.074561908,4,4,0,3,2,2,4,12,21,0,2,1,0,1,0,0,1,1,0,0,0.125
"A-1576","2-(tert-butylperoxy)-2-methylpropane",-2.9320403696,"CC(C)(C)OOC(C)(C)C","CC(C)(C)OOC(C)(C)C",11.100917905331215,"CC(C)(C)OOC(C)(C)C",2.531600000000001,18.46,146.130679816,2,0,1,0,2,0,2,10,28,0,0,0,0,0,0,0,0,0,0,0,1
"A-1577","ethyl 3-phenylacrylate",-3.0130467638,"CCOC(=O)C=Cc1ccccc1","CCOC(=O)C=Cc1ccccc1",13.289436631288572,"CCOC(=O)C=Cc1ccccc1",2.2629,26.3,176.083729624,2,0,3,0,2,0,2,13,25,0,1,1,0,0,0,0,0,1,0,0,0.18181818181818182
"A-1579","2,3-dihydro-1,2-benzothiazol-3-one",-1.9472895459,"O=c1[nH]sc2ccccc12","O=C1NSc2ccccc21",19.622251161208283,"O=c1[nH]sc2ccccc12",1.4371,29.1,151.00918478,2,1,0,1,2,1,3,10,15,0,2,1,0,1,0,0,1,1,0,0,0
"A-1585","2-methyl-1-[4-(methylsulfanyl)phenyl]-2-(morpholin-4-yl)propan-1-one",-4.1933811426,"CSc1ccc(C(=O)C(C)(C)[NH+]2CCOCC2)cc1","CSc1ccc(C(=O)C(C)(C)[NH+]2CCOCC2)cc1",83.89116820171076,"CSc1ccc(C(=O)C(C)(C)[NH+]2CCOCC2)cc1",1.2848999999999997,30.740000000000002,280.13657636409,3,1,4,1,3,0,4,19,41,0,2,1,1,1,0,1,1,1,0,0,0.5333333333333333
"A-1587","Isolongifolanone",-4.0976122125,"CC1(C)C2CCC3(C2)C1C(=O)CCC3(C)C","CC1(C)C2CCC3(C2)C1C(=O)CCC3(C)C",51.02727634596824,"CC1(C)C2CCC3(C2)C1C(=O)CCC3(C)C",3.818000000000003,17.07,220.182715388,1,0,0,0,1,0,1,16,40,3,3,0,3,3,0,0,0,0,3,3,0.9333333333333333
"A-1588","1,1-dimethylpropyl 2-(ethylperoxy)hexanoate",-4.116871778,"CCCCC(CC)C(=O)OOC(C)(C)CC","CCCCC(CC)C(=O)OOC(C)(C)CC",26.743112096063754,"CCCCC(CC)C(=O)OOC(C)(C)CC",3.8662000000000027,35.53,230.188194692,3,0,8,0,3,0,3,16,42,1,0,0,0,0,0,0,0,0,0,0,0.9230769230769231
"A-1591","1,1-dimethoxycyclododecane",-4.1256543516,"COC1(OC)CCCCCCCCCCC1","COC1(OC)CCCCCCCCCCC1",6.859903667419918,"COC1(OC)CCCCCCCCCCC1",4.280200000000004,18.46,228.208930136,2,0,2,0,2,0,2,16,44,0,1,0,1,1,0,0,0,0,1,1,1
"A-1599","5-[(5-sulfanylidene-4,5-dihydro-1,3,4-thiadiazol-2-yl)disulfanyl]-2,3-dihydro-1,3,4-thiadiazole-2-thione",-3.2522133148,"S=c1[nH]nc(SSc2n[nH]c(=S)s2)s1","S=C1NN=C(SSC2=NNC(=S)S2)S1",-8.962576914947164,"S=c1[nH]nc(SSc2n[nH]c(=S)s2)s1",2.1524,48.78,297.86037206400005,4,2,0,2,8,0,10,14,16,0,2,0,0,2,0,0,2,0,0,0,0
"A-1600","nonan-2-one",-2.9303113789,"CCCCCCCC(C)=O","CCCCCCCC(C)=O",1.2274464394295324,"CCCCCCCC(=O)C",2.935900000000002,17.07,142.135765196,1,0,6,0,1,0,1,10,28,0,0,0,0,0,0,0,0,0,0,0,0.8888888888888888
"A-1601","1-methyl-2,4-dinitrobenzene; 2-methyl-1,3-dinitrobenzene",-3.040285322,"Cc1ccc([N+](=O)[O-])cc1[N+](=O)[O-]","Cc1ccc([N+](=O)[O-])cc1[N+](=O)[O-]",37.24187520794695,"Cc1ccc([N+](=O)[O-])cc1[N+](=O)[O-]",1.81142,86.28,182.032756672,6,0,2,0,4,0,6,13,19,0,1,1,0,0,0,0,0,1,0,0,0.14285714285714285
"A-1606","4-[(3-hydroxypropyl)amino]-3-nitrophenol",-2.1105897103,"O=[N+]([O-])c1cc(O)ccc1NCCCO","O=[N+]([O-])c1cc(O)ccc1NCCCO",27.646417621091384,"O=[N+]([O-])c1cc(O)ccc1NCCCO",1.0946999999999998,95.63000000000001,212.079706864,6,3,5,3,5,0,6,15,27,0,1,1,0,0,0,0,0,1,0,0,0.3333333333333333
"A-1608","ethyl 2-methyl-4-oxo-6-pentylcyclohex-2-ene-1-carboxylate",-3.187166345,"CCCCCC1CC(=O)C=C(C)C1C(=O)OCC","CCCCCC1CC(=O)C=C(C)C1C(=O)OCC",23.68634452258613,"CCCCCC1CC(=O)C=C(C)C1C(=O)OCC",3.2813000000000017,43.370000000000005,252.172544628,3,0,6,0,3,0,3,18,42,2,1,0,0,1,0,0,0,0,0,1,0.7333333333333333
"A-1612","1,2-xylene",-2.8191677601,"Cc1ccccc1C","Cc1ccccc1C",15.674903148891092,"Cc1ccccc1C",2.30344,0,106.07825032,0,0,0,0,0,0,0,8,18,0,1,1,0,0,0,0,0,1,0,0,0.25
"A-1614","1,4-xylene",-2.8191677601,"Cc1ccc(C)cc1","Cc1ccc(C)cc1",12.571861356740415,"Cc1ccc(C)cc1",2.30344,0,106.07825032,0,0,0,0,0,0,0,8,18,0,1,1,0,0,0,0,0,1,0,0,0.25
"A-1617","2,3,4,5,6,7-hexahydro-1H-isoindole-1,3-dione",-1.974517726,"O=C1NC(=O)C2=C1CCCC2","O=C1NC(=O)C2=C1CCCC2",-18.242961363851983,"O=C1NC(=O)C2=C1CCCC2",0.5133999999999999,46.17,151.063328528,3,1,0,1,2,2,3,11,20,0,2,0,0,2,0,0,1,0,0,1,0.5
"A-1619","2-phenylethyl 2-methylpropanoate",-3.0797644375,"CC(C)C(=O)OCCc1ccccc1","CC(C)C(=O)OCCc1ccccc1",7.774697771905367,"CC(C)C(=O)OCCc1ccccc1",2.4283,26.3,192.115029752,2,0,4,0,2,0,2,14,30,0,1,1,0,0,0,0,0,1,0,0,0.4166666666666667