"ID","Name","Solubility","SMILES Canonical","Smiles (Optimized Geometry)","Energy","Smiles","SlogP","TPSA","ExactMW","NumLipinskiHBA","NumLipinskiHBD","NumRotatableBonds","NumHBD","NumHBA","NumAmideBonds","NumHeteroAtoms","NumHeavyAtoms","NumAtoms","NumStereocenters","NumRings","NumAromaticRings","NumSaturatedRings","NumAliphaticRings","NumAromaticHeterocycles","NumSaturatedHeterocycles","NumAliphaticHeterocycles","NumAromaticCarbocycles","NumSaturatedCarbocycles","NumAliphaticCarbocycles","FractionCSP3"
"B-2511","1(3h)-isobenzofuranone, 3-ethyl-",-1.747,"CCC1OC(=O)c2ccccc21","CCC1OC(=O)c2ccccc21",15.290105847159115,"CCC1OC(=O)c2ccccc12",2.3081000000000005,26.3,162.06807956,2,0,1,0,2,0,2,12,22,1,2,1,0,1,0,0,1,1,0,0,0.3
"B-2513","1,2,4-triazin-3-amine, 5,6-dimethyl-",-1.0939,"Cc1nnc(N)nc1C","Cc1nnc(N)nc1C",39.121907691339736,"Cc1nnc(N)nc1C",0.07063999999999965,64.69,124.07489625599999,4,2,0,1,4,0,4,9,17,0,1,1,0,0,1,0,0,0,0,0,0.4
"B-2514","bensultap",-5.76,"C[NH+](C)C(CSS(=O)(=O)c1ccccc1)CSS(=O)(=O)c1ccccc1","C[NH+](C)C(CSS(=O)(=O)c1ccccc1)CSS(=O)(=O)c1ccccc1",-34.24387840924934,"C[NH+](C)C(CSS(=O)(=O)c1ccccc1)CSS(=O)(=O)c1ccccc1",1.7437000000000002,72.72,432.0426186040899,5,1,9,1,6,0,9,26,48,0,2,2,0,0,0,0,0,2,0,0,0.29411764705882354
"B-2515","butanedinitrile, ethyl-",-0.6916,"CCC(C#N)CC#N","CCC(C#N)CC#N",-15.952318797643251,"CCC(C#N)CC#N",1.44986,47.58,108.06874825599999,2,0,2,0,2,0,2,8,16,1,0,0,0,0,0,0,0,0,0,0,0.6666666666666666
"B-2516","amicetin",-2.4904,"CC1OC(n2ccc(NC(=O)c3ccc(NC(=O)C(C)([NH3+])CO)cc3)nc2=O)CCC1OC1OC(C)C([NH+](C)C)C(O)C1O","CC1OC(N2C=CC(NC(=O)c3ccc(NC(=O)C(C)([NH3+])CO)cc3)=NC2=O)CCC1OC1OC(C)C([NH+](C)C)C(O)C1O",-34.88004970051935,"CC1OC(n2ccc(NC(=O)c3ccc(NC(=O)C(C)([NH3+])CO)cc3)nc2=O)CCC1OC1OC(C)C([NH+](C)C)C(O)C1O",-2.414499999999992,211.32999999999996,620.3158798281801,15,9,8,7,9,4,15,44,88,9,4,1,2,3,0,2,3,1,0,0,0.5862068965517241
"B-2517","1,2-benzenedicarboxylic acid, mono(2-hydroxyethy",-1.4825,"O=C([O-])c1ccccc1C(=O)OCCO","O=C([O-])c1ccccc1C(=O)OCCO",4.725275751158971,"O=C([O-])c1ccccc1C(=O)OCCO",-0.8008000000000002,86.66,209.04554696791,5,1,4,1,5,0,5,15,24,0,1,1,0,0,0,0,0,1,0,0,0.2
"B-2520","phenol, 4-amino-2,6-dinitro-",-2.3853,"Nc1cc([N+](=O)[O-])c([O-])c([N+](=O)[O-])c1","Nc1cc([N+](=O)[O-])c([O-])c([N+](=O)[O-])c1",98.96761701570662,"Nc1cc([N+](=O)[O-])c([O-])c([N+](=O)[O-])c1",0.15879999999999983,135.36,198.01564380791,8,2,2,1,6,0,8,14,18,0,1,1,0,0,0,0,0,1,0,0,0
"B-2522","1-pentene, 5-isothiocyanato-",-2.9004,"C=CCCCN=C=S","C=CCCCN=C=S",-6.283427138555911,"C=CCCCN=C=S",2.0554,12.36,127.045570288,1,0,4,0,2,0,2,8,17,0,0,0,0,0,0,0,0,0,0,0,0.5
"B-2523","[1,1'-biphenyl]-3-ol, 4-nitro-",-3.8557,"O=[N+]([O-])c1ccc(-c2ccccc2)cc1[O-]","O=[N+]([O-])c1ccc(-c2ccccc2)cc1[O-]",81.20190423974647,"O=[N+]([O-])c1ccc(c2ccccc2)cc1[O-]",2.335399999999999,66.2,214.05096669591,4,0,2,0,3,0,4,16,24,0,2,2,0,0,0,0,0,2,0,0,0
"B-2524","benzaldehyde, 4-hydroxy-3-methoxy-2-methyl-",-1.3755,"COc1c(O)ccc(C=O)c1C","COc1c(O)ccc(C=O)c1C",31.549924967664044,"COc1c(O)ccc(C=O)c1C",1.52172,46.53,166.06299418,3,1,2,1,3,0,3,12,22,0,1,1,0,0,0,0,0,1,0,0,0.2222222222222222
"B-2525","benzoic acid, 4-amino-, 1-methylethyl ester",-2.6099,"CC(C)OC(=O)c1ccc(N)cc1","CC(C)OC(=O)c1ccc(N)cc1",9.092985841333268,"CC(C)OC(=O)c1ccc(N)cc1",1.8339999999999999,52.32,179.094628656,3,2,2,1,3,0,3,13,26,0,1,1,0,0,0,0,0,1,0,0,0.3
"B-2528","hydrazinecarboximidamide, n-nitro-",-1.6458,"N=C(N[NH3+])N[N+](=O)[O-]","N=C(N[NH3+])N[N+](=O)[O-]",-59.000506436556556,"N=C(N[NH3+])N[N+](=O)[O-]",-2.55103,118.69,120.05160085208999,7,6,1,4,3,0,7,8,14,0,0,0,0,0,0,0,0,0,0,0,0
"B-2530","1,2-cyclohexanedione, 3-methyl-, dioxime",-1.5916,"CC1CCCC(=NO)C1=NO","CC1CCCC(=NO)C1=NO",35.8081573182292,"CC1CCCC(=NO)C1=NO",1.4667999999999999,65.18,156.089877624,4,2,0,2,4,0,4,11,23,1,1,0,1,1,0,0,0,0,1,1,0.7142857142857143
"B-2531","1,2-cyclohexanedione, 4-methyl-, dioxime",-1.6622,"CC1CCC(N=O)=C(N[O-])C1","CC1CCC(N=O)=C(N[O-])C1",13.436798369701677,"CC1CCC(=C(N[O-])C1)N=O",1.8718,64.52,155.08260117191,4,1,2,1,4,0,4,11,22,1,1,0,0,1,0,0,0,0,0,1,0.7142857142857143
"B-2532","1,2-cyclohexanedione, 4-isopropyl-, dioxime",-2.3903,"CC(C)C1CCC(=NO)C(=NO)C1","CC(C)C1CCC(=NO)C(=NO)C1",37.67518169625153,"CC(C)C1CCC(=NO)C(=NO)C1",2.1029,65.18,184.121177752,4,2,1,2,4,0,4,13,29,1,1,0,1,1,0,0,0,0,1,1,0.7777777777777778
"B-2533","l-alanine, n-(aminocarbonyl)-",-0.9656,"C[C@H](NC(N)=O)C(=O)[O-]","C[C@H](NC(N)=O)C(=O)[O-]",27.55116067148945,"C[C@H](NC(=O)N)C(=O)[O-]",-2.206899999999999,95.25,131.04621566391,5,3,2,2,3,2,5,9,16,1,0,0,0,0,0,0,0,0,0,0,0.5
"B-2534","benz(a)anthracene-4,5-dimethylene",-7.9743,"Cc1cccc2c1c(C)cc1cc3ccccc3cc12","Cc1cccc2c1c(C)cc1cc3ccccc3cc12",57.972903585431446,"Cc1cccc2c1c(C)cc1cc3ccccc3cc21",5.763040000000004,0,256.125200512,0,0,0,0,0,0,0,20,36,0,4,4,0,0,0,0,0,4,0,0,0.1
"B-2535","1,2-cyclodecanedione, dioxime",-2.5813,"ON=C1CCCCCCCCC1=NO","ON=C1CCCCCCCCC1=NO",40.42140903691155,"ON=C1CCCCCCCCC1=NO",2.781200000000001,65.18,198.136827816,4,2,0,2,4,0,4,14,32,0,1,0,1,1,0,0,0,0,1,1,0.8
"B-2538","ethanesulfinothioic acid, s-ethyl ester",-0.0993,"CCSS(=O)CC","CCSS(=O)CC",-5.286767472776257,"CCSS(=O)CC",1.4231,17.07,138.01730694,1,0,3,0,2,0,3,7,17,1,0,0,0,0,0,0,0,0,0,0,1
"B-2539","albuterol",-1.2298,"CC(C)(C)[NH2+]CC(O)c1ccc(O)c(CO)c1","CC(C)(C)[NH2+]CC(O)c1ccc(O)c(CO)c1",14.196962075210207,"CC(C)(C)[NH2+]CC(O)c1ccc(O)c(CO)c1",0.2798000000000001,77.30000000000001,240.15941998409,4,5,4,4,3,0,4,17,39,1,1,1,0,0,0,0,0,1,0,0,0.5384615384615384
"B-2540","2h-pyran, tetrahydro-2-methoxy-6-methyl-",-0.5921,"COC1CCCC(C)O1","COC1CCCC(C)O1",-9.383390130561642,"COC1CCCC(C)O1",1.5479,18.46,130.099379688,2,0,1,0,2,0,2,9,23,2,1,0,1,1,0,1,1,0,0,0,1
"B-2541","2-oxabicyclo[2.2.2]octan-6-one, 1,3,3-trimethyl-",-0.9249,"CC12CCC(CC1=O)C(C)(C)O2","CC12CCC(CC1=O)C(C)(C)O2",47.85420477167824,"CC12CCC(CC1=O)C(C)(C)O2",1.9231,26.3,168.115029752,2,0,0,0,2,0,2,12,28,2,3,0,3,3,0,2,2,0,1,1,0.9
"B-2542","methabenzthiazuron",-3.5741,"CNC(=O)N(C)c1nc2ccccc2s1","CNC(=O)N(C)c1nc2ccccc2s1",-36.3475036453931,"CNC(=O)N(C)c1nc2ccccc2s1",2.0719000000000003,45.230000000000004,221.062282972,4,1,1,1,3,2,5,15,26,0,2,2,0,0,1,0,0,1,0,0,0.2
"B-2543","3-heptanol, 2-methyl-",-1.8122,"CCCCC(O)C(C)C","CCCCC(O)C(C)C",5.850840983659406,"CCCCC(O)C(C)C",2.1935000000000002,20.23,130.135765196,1,1,4,1,1,0,1,9,27,1,0,0,0,0,0,0,0,0,0,0,1
"B-2544","3-heptanol, 5-methyl-",-1.8602,"CCC(C)CC(O)CC","CCC(C)CC(O)CC",7.426326255808531,"CCC(C)CC(O)CC",2.1935000000000002,20.23,130.135765196,1,1,4,1,1,0,1,9,27,2,0,0,0,0,0,0,0,0,0,0,1
"B-2545","ethylisopentylcarbinol",-1.9272,"CCC(O)CCC(C)C","CCC(O)CCC(C)C",5.8195565443465105,"CCC(O)CCC(C)C",2.1935000000000002,20.23,130.135765196,1,1,4,1,1,0,1,9,27,1,0,0,0,0,0,0,0,0,0,0,1
"B-2547","isoxathion",-5.2172,"CCOP(=S)(OCC)Oc1cc(-c2ccccc2)on1","CCOP(=S)(OCC)Oc1cc(-c2ccccc2)on1",-61.84218674002095,"CCOP(=S)(OCC)Oc1cc(c2ccccc2)on1",4.017900000000004,53.72,313.053765622,5,0,7,0,6,0,7,20,36,0,2,2,0,0,1,0,0,1,0,0,0.3076923076923077
"B-2548","butanoic acid, 3-methyl-, 4-nitrophenyl ester",-4.3945,"CC(C)CC(=O)Oc1ccc([N+](=O)[O-])cc1","CC(C)CC(=O)Oc1ccc([N+](=O)[O-])cc1",31.31266006316207,"CC(C)CC(=O)Oc1ccc([N+](=O)[O-])cc1",2.5463000000000005,69.44,223.084457896,5,0,4,0,4,0,5,16,29,0,1,1,0,0,0,0,0,1,0,0,0.36363636363636365
"B-2551","acetamide, n- 4- (2-pyridinylamino)sulfonyl phen",-3.7162,"CC(=O)Nc1ccc(S(=O)(=O)Nc2ccccn2)cc1","CC(=O)Nc1ccc(S(=O)(=O)Nc2ccccn2)cc1",-17.532529238777833,"CC(=O)Nc1ccc(S(=O)(=O)Nc2ccccn2)cc1",1.8407999999999998,88.16,291.06776227600005,6,2,4,2,4,1,7,20,33,0,2,2,0,0,1,0,0,1,0,0,0.07692307692307693
"B-2552","2,4-pteridinediamine, 6,7-diethyl-",-3.2671,"CCc1nc2nc(N)nc(N)c2nc1CC","CCc1nc2nc(N)nc(N)c2nc1CC",46.676579486697506,"CCc1nc2nc(N)nc(N)c2nc1CC",0.7089999999999999,103.6,218.12799444799998,6,4,2,2,6,0,6,16,30,0,2,2,0,0,2,0,0,0,0,0,0.4
"B-2553","pteridine, 2-(methylamino)-",-1.7124,"CNc1ncc2nccnc2n1","CNc1ncc2nccnc2n1",17.846509880006607,"CNc1ncc2nccnc2n1",0.4614999999999998,63.59,161.070145224,5,1,1,1,5,0,5,12,19,0,2,2,0,0,2,0,0,0,0,0,0.14285714285714285
"B-2554","nicotinamide, n-(6-methoxy-8-quinolyl)-",-4.4461,"COc1cc(NC(=O)c2cccnc2)c2ncccc2c1","COc1cc(NC(=O)c2cccnc2)c2ncccc2c1",50.357741521315184,"COc1cc(NC(=O)c2cccnc2)c2ncccc2c1",2.8907000000000007,64.11,279.100776656,5,1,3,1,4,1,5,21,34,0,3,3,0,0,2,0,0,1,0,0,0.0625
"B-2555","polyoxin b",0.2946,"NC(=O)OC[C@H](O)[C@@H](O)[C@H]([NH3+])C(=O)N[C@H](C(=O)[O-])[C@H]1O[C@@H](n2cc(CO)c(=O)[nH]c2=O)C(O)C1O","NC(=O)OC[C@H](O)[C@@H](O)[C@H]([NH3+])C(=O)N[C@H](C(=O)[O-])[C@H]1O[C@@H](N2C=C(CO)C(=O)NC2=O)C(O)C1O",-168.06599801301257,"NC(=O)OC[C@H](O)[C@@H](O)[C@H]([NH3+])C(=O)N[C@H](C(=O)[O-])[C@H]1O[C@@H](n2cc(CO)c(=O)[nH]c2=O)C(O)C1O",-8.476600000000007,308.98,507.14488585999993,18,12,10,9,13,5,18,35,60,8,2,0,1,2,0,1,2,0,0,0,0.5882352941176471
"B-2558","3,5-dimethyl-4-heptanol",-2.5108,"CCC(C)C(O)C(C)CC","CCC(C)C(O)C(C)CC",10.261860249938168,"CCC(C)C(O)C(C)CC",2.4395000000000007,20.23,144.15141526,1,1,4,1,1,0,1,10,30,2,0,0,0,0,0,0,0,0,0,0,1
"B-2563","1-naphthoic acid, 4-ethoxy-",-4.1122,"CCOc1ccc(C(=O)[O-])c2ccccc12","CCOc1ccc(C(=O)[O-])c2ccccc12",44.798758824867384,"CCOc1ccc(C(=O)[O-])c2ccccc12",1.6019999999999999,49.36,215.07136779191,3,0,3,0,3,0,3,16,27,0,2,2,0,0,0,0,0,2,0,0,0.15384615384615385
"B-2564","1,2-butanediol, 2-methyl-1-phenyl-",-1.7244,"CCC(C)(O)C(O)c1ccccc1","CCC(C)(O)C(O)c1ccccc1",34.30366846285646,"CCC(C)(O)C(O)c1ccccc1",1.881,40.46,180.115029752,2,2,3,2,2,0,2,13,29,2,1,1,0,0,0,0,0,1,0,0,0.45454545454545453
"B-2565","d-leucine, n-acetyl-",-1.3301,"CC(=O)N[C@H](CC(C)C)C(=O)[O-]","CC(=O)N[C@H](CC(C)C)C(=O)[O-]",32.606949085472515,"CC(=O)N[C@H](CC(C)C)C(=O)[O-]",-0.7128999999999999,69.23,172.09791688791,4,1,4,1,3,1,4,12,26,1,0,0,0,0,0,0,0,0,0,0,0.75
"B-2567","dl-serine, o-methyl-",0.6524,"COC[C@H]([NH3+])C(=O)[O-]","COC[C@H]([NH3+])C(=O)[O-]",-83.38247231650597,"COC[C@H]([NH3+])C(=O)[O-]",-3.0067999999999984,77,119.058243148,4,3,3,1,3,0,4,8,17,1,0,0,0,0,0,0,0,0,0,0,0.75
"B-2570","propanoic acid, 3-hydroxy-2-methyl-, 2,3,3a,4,5,",-2.2436,"C=C1C(=O)O[C@@H]2C=C(CO)CCC=C(C)C[C@H](OC(=O)C(C)CO)[C@@H]12","C=C1C(=O)O[C@@H]2C=C(CO)CCC=C(C)C[C@H](OC(=O)C(C)CO)[C@@H]12",-13.5007436117121,"C=C1C(=O)O[C@@H]2C=C(CO)CCC=C(C)C[C@H](OC(=O)C(C)CO)[C@@H]12",1.6732999999999998,93.06000000000002,350.17293855199995,6,2,4,2,6,0,6,25,51,4,2,0,1,2,0,1,1,0,0,1,0.5789473684210527
"B-2573","benzoic acid, 4-amino-, dodecyl ester",-7.8,"CCCCCCCCCCCCOC(=O)c1ccc(N)cc1","CCCCCCCCCCCCOC(=O)c1ccc(N)cc1",9.235304607712857,"CCCCCCCCCCCCOC(=O)c1ccc(N)cc1",5.346500000000004,52.32,305.23547923200005,3,2,12,1,3,0,3,22,53,0,1,1,0,0,0,0,0,1,0,0,0.631578947368421
"B-2574","2-furaldehyde, 5-nitro-, 2-pentylsemicarbazone",-2.8971,"CCCCCN(N=Cc1ccc([N+](=O)[O-])o1)C(N)=O","CCCCCN(N=Cc1ccc([N+](=O)[O-])o1)C(N)=O",80.6020394937615,"CCCCCN(N=Cc1ccc([N+](=O)[O-])o1)C(=O)N",2.0926,114.97,268.117154992,8,2,7,1,5,2,8,19,35,0,1,1,0,0,1,0,0,0,0,0,0.45454545454545453
"B-2576","cinmetacin",-5.5433,"COc1ccc2c(c1)c(CC(=O)[O-])c(C)n2C(=O)C=Cc1ccccc1","COc1ccc2c(c1)c(CC(=O)[O-])c(C)n2C(=O)C=Cc1ccccc1",112.15434396037814,"COc1ccc2c(c1)c(CC(=O)[O-])c(C)n2C(=O)C=Cc1ccccc1",2.6043200000000004,71.36,348.12413163591003,5,0,5,0,5,0,5,26,44,0,3,3,0,0,1,0,0,2,0,0,0.14285714285714285
"B-2577","diethyl pentyl phosphate",-1.4757,"CCCCCOP(=O)(OCC)OCC","CCCCCOP(=O)(OCC)OCC",-84.56483563760855,"CCCCCOP(=O)(OCC)OCC",3.3743000000000025,44.760000000000005,224.117745782,4,0,9,0,4,0,5,14,35,0,0,0,0,0,0,0,0,0,0,0,1
"B-2579","2-butanol, 3,3-dimethyl-, (.+-.)-",-0.6238,"CC(O)C(C)(C)C","CC(O)C(C)(C)C",6.461765483924057,"CC(O)C(C)(C)C",1.4133,20.23,102.104465068,1,1,0,1,1,0,1,7,21,1,0,0,0,0,0,0,0,0,0,0,1
"B-2580","3-octanol, (.+-.)-",-2.0171,"CCCCCC(O)CC","CCCCCC(O)CC",4.040626361920325,"CCCCCC(O)CC",2.3376,20.23,130.135765196,1,1,5,1,1,0,1,9,27,1,0,0,0,0,0,0,0,0,0,0,1
"B-2581","phosphorodithioic acid, s-[2-(ethylsulfonyl)ethy",-2.5415,"CCS(=O)(=O)CCSP(=S)(OC)OC","CCS(=O)(=O)CCSP(=S)(OC)OC",-86.2267515487682,"CCS(=O)(=O)CCSP(=S)(OC)OC",1.6716,52.60000000000001,277.98700859,4,0,7,0,6,0,8,14,29,0,0,0,0,0,0,0,0,0,0,0,1
"B-2582","tripropylene glycol methyl ether",0.6855,"COCC(C)OCC(C)OCC(C)O","COCC(C)OCC(C)OCC(C)O",49.319358428251746,"COCC(C)OCC(C)OCC(C)O",0.8238000000000001,47.92,206.151809184,4,1,8,1,4,0,4,14,36,3,0,0,0,0,0,0,0,0,0,0,1
"B-2584","acetamide, n-(4-propoxyphenyl)-",-3.0557,"CCCOc1ccc(NC(C)=O)cc1","CCCOc1ccc(NC(C)=O)cc1",21.769425615669363,"CCCOc1ccc(NC(=O)C)cc1",2.4338000000000006,38.33,193.11027872,3,1,4,1,2,1,3,14,29,0,1,1,0,0,0,0,0,1,0,0,0.36363636363636365
"B-2585","2-bornanone, 3-(hydroxymethyl)-",-0.215,"CC12CCC(C(CO)C1=O)C2(C)C","CC12CCC(C(CO)C1=O)C2(C)C",31.20940315899183,"CC12CCC(C(CO)C1=O)C2(C)C",1.6200999999999999,37.3,182.130679816,2,1,1,1,2,0,2,13,31,3,2,0,2,2,0,0,0,0,2,2,0.9090909090909091
"B-2586","urea, 1-methyl-1-o-tolyl-",-0.4032,"Cc1ccccc1N(C)C(N)=O","Cc1ccccc1N(C)C(N)=O",10.757173447883511,"Cc1ccccc1N(C)C(=O)N",1.5099200000000002,46.33,164.094963004,3,2,1,1,1,2,3,12,24,0,1,1,0,0,0,0,0,1,0,0,0.2222222222222222
"B-2587","1-hexyl nitrate",-3.1265,"CCCCCCO[N+](=O)[O-]","CCCCCCO[N+](=O)[O-]",-16.742030836945325,"CCCCCCO[N+](=O)[O-]",1.775,52.370000000000005,147.089543276,4,0,6,0,3,0,4,10,23,0,0,0,0,0,0,0,0,0,0,0,1
"B-2588","urea, 1-ethyl-1-o-tolyl-",-0.2096,"CCN(C(N)=O)c1ccccc1C","CCN(C(N)=O)c1ccccc1C",12.729391402215274,"CCN(C(=O)N)c1ccccc1C",1.9000200000000003,46.33,178.110613068,3,2,2,1,1,2,3,13,27,0,1,1,0,0,0,0,0,1,0,0,0.3
"B-2589","5-pyrimidineacetic acid, 1,2,3,4-tetrahydro-2,4-",-1.6287,"O=C([O-])Cc1c[nH]c(=O)[nH]c1=O","O=C([O-])CC1=CNC(=O)NC1=O",-31.677936319176563,"O=C([O-])Cc1c[nH]c(=O)[nH]c1=O",-2.1502999999999997,98.32999999999998,169.02548021991,6,2,2,2,4,3,6,12,17,0,1,0,0,1,0,0,1,0,0,0,0.16666666666666666
"B-2590","1,2-pentanediol, 1-phenyl-2-propyl-",-2.648,"CCCC(O)(CCC)C(O)c1ccccc1","CCCC(O)(CCC)C(O)c1ccccc1",38.09938185081145,"CCCC(O)(CCC)C(O)c1ccccc1",3.0513000000000012,40.46,222.161979944,2,2,6,2,2,0,2,16,38,1,1,1,0,0,0,0,0,1,0,0,0.5714285714285714
"B-2591","1,2-hexanediol, 2-butyl-1phenyl-",-3.2225,"CCCCC(O)(CCCC)C(O)c1ccccc1","CCCCC(O)(CCCC)C(O)c1ccccc1",36.64259501402241,"CCCCC(O)(CCCC)C(O)c1ccccc1",3.831500000000003,40.46,250.193280072,2,2,8,2,2,0,2,18,44,1,1,1,0,0,0,0,0,1,0,0,0.625
"B-2592","pyridine, 2,3,4,6-tetramethyl-",-1.3069,"Cc1cc(C)c(C)c(C)n1","Cc1cc(C)c(C)c(C)n1",21.034178026338402,"Cc1cc(C)c(C)c(C)n1",2.3152800000000004,12.89,135.104799416,1,0,0,0,1,0,1,10,23,0,1,1,0,0,1,0,0,0,0,0,0.4444444444444444
"B-2597","tonalid",-5.3154,"CC(=O)c1cc2c(cc1C)C(C)(C)C(C)CC2(C)C","CC(=O)c1cc2c(cc1C)C(C)(C)C(C)CC2(C)C",45.490256470136764,"CC(=O)c1cc2c(cc1C)C(C)(C)C(C)CC2(C)C",4.792620000000005,17.07,258.198365452,1,0,1,0,1,0,1,19,45,1,2,1,0,1,0,0,0,1,0,1,0.6111111111111112
"B-2598","1,3-benzenedicarboxylic acid, 2-nitro-",-1.9901,"O=C([O-])c1cccc(C(=O)[O-])c1[N+](=O)[O-]","O=C([O-])c1cccc(C(=O)[O-])c1[N+](=O)[O-]",52.8199305032642,"O=C([O-])c1cccc(C(=O)[O-])c1[N+](=O)[O-]",-1.6782000000000001,123.4,208.99713397582002,7,0,3,0,6,0,7,15,18,0,1,1,0,0,0,0,0,1,0,0,0
"B-2601","4,6-dinitro-biphenyl-3-ol",-4.4611,"O=[N+]([O-])c1cc([N+](=O)[O-])c(-c2ccccc2)cc1[O-]","O=[N+]([O-])c1cc([N+](=O)[O-])c(-c2ccccc2)cc1[O-]",83.98220532633886,"O=[N+]([O-])c1cc([N+](=O)[O-])c(c2ccccc2)cc1[O-]",2.243599999999999,109.34,259.03604490391,7,0,3,0,5,0,7,19,26,0,2,2,0,0,0,0,0,2,0,0,0
"B-2602","fosthietan",-0.6835,"CCOP(=O)(N=C1SCS1)OCC","CCOP(=O)(N=C1SCS1)OCC",-143.1775677905475,"CCOP(=O)(N=C1SCS1)OCC",2.961000000000001,47.89,240.999621874,4,0,5,0,5,0,7,13,25,0,1,0,1,1,0,1,1,0,0,0,0.8333333333333334
"B-2603","2-(thiocyanatemethylthio)benzothiazole",-3.2803,"N#CSCSc1nc2ccccc2s1","N#CSCSc1nc2ccccc2s1",-20.461095666482542,"N#CSCSc1nc2ccccc2s1",3.560180000000001,36.68,237.969311192,2,0,3,0,5,0,5,14,20,0,2,2,0,0,1,0,0,1,0,0,0.1111111111111111
"B-2604","4-heptanol, 2-methyl-",-1.9079,"CCCC(O)CC(C)C","CCCC(O)CC(C)C",7.613232560690934,"CCCC(O)CC(C)C",2.1935000000000002,20.23,130.135765196,1,1,4,1,1,0,1,9,27,1,0,0,0,0,0,0,0,0,0,0,1
"B-2606","2h-1,4-benzoxazin-3(4h)-one, 4-methyl-",-2.1445,"CN1C(=O)COc2ccccc21","CN1C(=O)COc2ccccc21",44.785000052856226,"CN1C(=O)COc2ccccc12",1.0417999999999998,29.540000000000003,163.063328528,3,0,0,0,2,1,3,12,21,0,2,1,0,1,0,0,1,1,0,0,0.2222222222222222
"B-2608","di-sec-butanolamine",0.7925,"CCC(O)C[NH2+]CC(O)CC","CCC(O)C[NH2+]CC(O)CC",0.174187791212644,"CCC(O)C[NH2+]CC(O)CC",-0.908399999999999,57.07000000000001,162.14885530009,3,4,6,3,2,0,3,11,31,2,0,0,0,0,0,0,0,0,0,0,1
"B-2609","isopentyl nitrate",-2.4809,"CCCC(C)O[N+](=O)[O-]","CCCC(C)O[N+](=O)[O-]",-14.622881304543926,"CCCC(C)O[N+](=O)[O-]",1.3833,52.370000000000005,133.073893212,4,0,4,0,3,0,4,9,20,1,0,0,0,0,0,0,0,0,0,0,1
"B-2611","1,2,3-thiadiazole-4-carboxylic acid, 5-methyl-",-0.4598,"Cc1snnc1C(=O)[O-]","Cc1snnc1C(=O)[O-]",36.243942362314705,"Cc1snnc1C(=O)[O-]",-0.7899800000000001,65.91,142.99207191591,4,0,1,0,5,0,5,9,12,0,1,1,0,0,1,0,0,0,0,0,0.25
"B-2612","biopterin",-2.5301,"CC(O)C(O)c1cnc2[nH]c(N)nc(=O)c2n1","CC(O)C(O)c1cnc2c(n1)C(=O)N=C(N)N2",93.42996905726383,"CC(O)C(O)c1cnc2c(n1)c(=O)nc(N)[nH]2",-1.2288000000000006,133.71999999999997,237.086189212,8,5,2,4,7,1,8,17,28,2,2,1,0,1,1,0,1,0,0,0,0.3333333333333333
"B-2615","acetamide, n-(4-ethoxyphenyl)-2-hydroxy-",-2.1058,"CCOc1ccc(NC(=O)CO)cc1","CCOc1ccc(NC(=O)CO)cc1",37.19974789837526,"CCOc1ccc(NC(=O)CO)cc1",1.0161,58.56,195.089543276,4,2,4,2,3,1,4,14,27,0,1,1,0,0,0,0,0,1,0,0,0.3
"B-2616","acetic acid, bis(2-carboxyphenyl)-",-2.4998,"O=C([O-])c1ccccc1C(C(=O)[O-])c1ccccc1C(=O)[O-]","O=C([O-])c1ccccc1C(C(=O)[O-])c1ccccc1C(=O)[O-]",283.5475086074762,"O=C([O-])c1ccccc1C(C(=O)[O-])c1ccccc1C(=O)[O-]",-1.704599999999999,120.38999999999999,297.04155874773,6,0,5,0,6,0,6,22,31,0,2,2,0,0,0,0,0,2,0,0,0.0625
"B-2618","benzenepropanoic acid, 2-nitro-.beta.-oxo-",-1.8434,"O=C([O-])CC(=O)c1ccccc1[N+](=O)[O-]","O=C([O-])CC(=O)c1ccccc1[N+](=O)[O-]",-8.17985946115753,"O=C([O-])CC(=O)c1ccccc1[N+](=O)[O-]",-0.08250000000000035,100.34,208.02514587191,6,0,4,0,5,0,6,15,21,0,1,1,0,0,0,0,0,1,0,0,0.1111111111111111
"B-2619","bendiocarb",-2.9338,"CNC(=O)Oc1cccc2c1OC(C)(C)O2","CNC(=O)Oc1cccc2c1OC(C)(C)O2",12.159920868396856,"CNC(=O)Oc1cccc2c1OC(C)(C)O2",1.9121,56.790000000000006,223.084457896,5,1,1,1,4,1,5,16,29,0,2,1,0,1,0,0,1,1,0,0,0.36363636363636365
"B-2620","anisomycin",-1.6075,"COc1ccc(C[C@@H]2[NH2+]C[C@@H](O)[C@@H]2OC(C)=O)cc1","COc1ccc(C[C@@H]2[NH2+]C[C@@H](O)[C@@H]2OC(C)=O)cc1",3.5596445377346857,"COc1ccc(C[C@@H]2[NH2+]C[C@@H](O)[C@@H]2OC(=O)C)cc1",-0.5240999999999991,72.37,266.13868454009,5,3,4,2,4,0,5,19,39,3,2,1,1,1,0,1,1,1,0,0,0.5
"B-2622","dimethamrtryne",-3.7082,"CCNc1nc(NC(C)C(C)C)nc(SC)n1","CCNc1nc(NC(C)C(C)C)nc(SC)n1",-182.2512675819925,"CCNc1nc(NC(C)C(C)C)nc(SC)n1",2.4817,62.730000000000004,255.15176667199998,5,2,6,2,6,0,6,17,38,1,1,1,0,0,1,0,0,0,0,0,0.7272727272727273
"B-2624","prallethrin",-4.5746,"C#CCC1=C(C)C(OC(=O)[C@H]2[C@H](C=C(C)C)C2(C)C)CC1=O","C#CCC1=C(C)C(OC(=O)[C@H]2[C@H](C=C(C)C)C2(C)C)CC1=O",-14.794497145314605,"C#CCC1=C(C)C(OC(=O)[C@H]2[C@H](C=C(C)C)C2(C)C)CC1=O",3.449200000000002,43.370000000000005,300.17254462799997,3,0,4,0,3,0,3,22,46,3,2,0,1,2,0,0,0,0,1,2,0.5789473684210527
"B-2625","1h-purine-2,6-dione, 7-ethyl-3,7-dihydro-1,3-dim",-0.7544,"CCn1cnc2c1c(=O)n(C)c(=O)n2C","CCn1cnc2c1C(=O)N(C)C(=O)N2C",-133.19273067454284,"CCn1cnc2c1c(=O)n(C)c(=O)n2C",0.5448,58.440000000000005,208.096025624,6,0,1,0,4,3,6,15,27,0,2,1,0,1,1,0,1,0,0,0,0.4444444444444444
"B-2626","pirimicarb",-1.9457,"Cc1nc(N(C)C)nc(OC(=O)N(C)C)c1C","Cc1nc(N(C)C)nc(OC(=O)N(C)C)c1C",-126.26474837272839,"Cc1nc(N(C)C)nc(OC(=O)N(C)C)c1C",1.2198399999999998,58.56,238.142975816,6,0,2,0,5,1,6,17,35,0,1,1,0,0,1,0,0,0,0,0,0.5454545454545454
"B-2627","oxamyl",0.1062,"CNC(=O)ON=C(SC)C(=O)N(C)C","CNC(=O)ON=C(SC)C(=O)N(C)C",59.81350470717105,"CNC(=O)ON=C(SC)C(=O)N(C)C",0.10709999999999997,70.99999999999999,219.067762276,6,1,1,1,5,2,7,14,27,0,0,0,0,0,0,0,0,0,0,0,0.5714285714285714