"ID","Name","Solubility","SMILES Canonical","Smiles (Optimized Geometry)","Energy","Smiles","SlogP","TPSA","ExactMW","NumLipinskiHBA","NumLipinskiHBD","NumRotatableBonds","NumHBD","NumHBA","NumAmideBonds","NumHeteroAtoms","NumHeavyAtoms","NumAtoms","NumStereocenters","NumRings","NumAromaticRings","NumSaturatedRings","NumAliphaticRings","NumAromaticHeterocycles","NumSaturatedHeterocycles","NumAliphaticHeterocycles","NumAromaticCarbocycles","NumSaturatedCarbocycles","NumAliphaticCarbocycles","FractionCSP3"
"A-2624","2,3-bis(acetyloxy)propyl dodecanoate",-6.3783676144,"CCCCCCCCCCCC(=O)OCC(COC(C)=O)OC(C)=O","CCCCCCCCCCCC(=O)OCC(COC(C)=O)OC(C)=O",-23.17533616531148,"CCCCCCCCCCCC(=O)OCC(COC(=O)C)OC(=O)C",3.9453000000000022,78.9,358.23553880799994,6,0,15,0,6,0,6,25,59,1,0,0,0,0,0,0,0,0,0,0,0.8421052631578947
"A-2625","2-Butenedioic acid (E)-, di-C12-18-alkyl esters",-6.5537875846,"CCCCCCCCCCCCCCCOC(=O)C=CC(=O)OCCCCCCCCCCCCCCC","CCCCCCCCCCCCCCCOC(=O)C=CC(=O)OCCCCCCCCCCCCCCC",-28.32924037675008,"CCCCCCCCCCCCCCCOC(=O)C=CC(=O)OCCCCCCCCCCCCCCC",10.811399999999992,52.60000000000001,536.480460528,4,0,30,0,4,0,4,38,102,0,0,0,0,0,0,0,0,0,0,0,0.8823529411764706
"A-2626","2-Butenedioic acid (E)-, di-C8-18-alkyl esters",-6.356030959,"CCCCCCCCOC(=O)C=CC(=O)OCCCCCCCC","CCCCCCCCOC(=O)C=CC(=O)OCCCCCCCC",-26.60902018911422,"CCCCCCCCOC(=O)C=CC(=O)OCCCCCCCC",5.350000000000006,52.60000000000001,340.261359632,4,0,16,0,4,0,4,24,60,0,0,0,0,0,0,0,0,0,0,0,0.8
"A-2627","bis(4-isocyanatophenyl) [(4-isocyanatophenyl)sulfanyl]phosphonate",-6.4917192558,"O=C=Nc1ccc(OP(=S)(Oc2ccc(N=C=O)cc2)Oc2ccc(N=C=O)cc2)cc1","O=C=Nc1ccc(OP(=S)(Oc2ccc(N=C=O)cc2)Oc2ccc(N=C=O)cc2)cc1",34.04774567462425,"O=C=Nc1ccc(OP(=S)(Oc2ccc(N=C=O)cc2)Oc2ccc(N=C=O)cc2)cc1",5.349800000000004,115.97999999999999,465.0184427339999,9,0,9,0,10,0,11,32,44,0,3,3,0,0,0,0,0,3,0,0,0
"A-2628","bis(8-methylnonyl) but-2-enedioate",-6.4222745911,"CC(C)CCCCCCCOC(=O)C=CC(=O)OCCCCCCCC(C)C","CC(C)CCCCCCCOC(=O)C=CC(=O)OCCCCCCCC(C)C",-26.504935723354414,"CC(C)CCCCCCCOC(=O)C=CC(=O)OCCCCCCCC(C)C",6.622200000000008,52.60000000000001,396.323959888,4,0,18,0,4,0,4,28,72,0,0,0,0,0,0,0,0,0,0,0,0.8333333333333334
"A-2629","didodecyl but-2-enedioate",-6.4797384219,"CCCCCCCCCCCCOC(=O)C=CC(=O)OCCCCCCCCCCCC","CCCCCCCCCCCCOC(=O)C=CC(=O)OCCCCCCCCCCCC",-30.281663197075684,"CCCCCCCCCCCCOC(=O)C=CC(=O)OCCCCCCCCCCCC",8.470800000000008,52.60000000000001,452.386560144,4,0,24,0,4,0,4,32,84,0,0,0,0,0,0,0,0,0,0,0,0.8571428571428571
"A-2630","propan-2-yl (9Z)-octadec-9-enoate",-6.3351890163,"CCCCCCCCC=CCCCCCCCC(=O)OC(C)C","CCCCCCCCC=CCCCCCCCC(=O)OC(C)C",-10.668559808121767,"CCCCCCCCC=CCCCCCCCC(=O)OC(C)C",6.975500000000008,26.3,324.30283052,2,0,16,0,2,0,2,23,63,0,0,0,0,0,0,0,0,0,0,0,0.8571428571428571
"A-2635","12-hydroxy-N-[2-(12-hydroxyoctadecanamido)ethyl]octadecanamide",-6.7352071916,"CCCCCCC(O)CCCCCCCCCCC(=O)NCCNC(=O)CCCCCCCCCCC(O)CCCCCC","CCCCCCC(O)CCCCCCCCCCC(=O)NCCNC(=O)CCCCCCCCCCC(O)CCCCCC",-15.140549471816247,"CCCCCCC(O)CCCCCCCCCCC(=O)NCCNC(=O)CCCCCCCCCCC(O)CCCCCC",9.683399999999999,98.66000000000001,624.580508912,6,4,35,4,4,2,6,44,120,2,0,0,0,0,0,0,0,0,0,0,0.9473684210526315
"A-2636","2-[4-(4-oxo-4H-3,1-benzoxazin-2-yl)phenyl]-4H-3,1-benzoxazin-4-one",-6.5170402935,"O=c1oc(-c2ccc(-c3nc4ccccc4c(=O)o3)cc2)nc2ccccc12","O=C1OC(c2ccc(C3=Nc4ccccc4C(=O)O3)cc2)=Nc2ccccc21",26.162559985446823,"O=c1oc(c2ccc(c3nc4ccccc4c(=O)o3)cc2)nc2ccccc12",4.184000000000003,77.32,368.079706864,6,0,2,0,6,0,6,28,40,0,5,3,0,2,0,0,2,3,0,0,0
"A-2637","(13Z)-docos-13-enamide",-6.5283921465,"CCCCCCCCC=CCCCCCCCCCCCC(N)=O","CCCCCCCCC=CCCCCCCCCCCCC(N)=O",1.956463134136912,"CCCCCCCCC=CCCCCCCCCCCCC(=O)N",7.069600000000007,43.09,337.334464996,2,2,19,1,1,1,2,24,67,0,0,0,0,0,0,0,0,0,0,0,0.8636363636363636
"A-2638","1,1',1''-methanetriyltris(4-isocyanatobenzene)",-6.5650965952,"O=C=Nc1ccc(C(c2ccc(N=C=O)cc2)c2ccc(N=C=O)cc2)cc1","O=C=Nc1ccc(C(c2ccc(N=C=O)cc2)c2ccc(N=C=O)cc2)cc1",47.241555181544534,"O=C=Nc1ccc(C(c2ccc(N=C=O)cc2)c2ccc(N=C=O)cc2)cc1",4.7687000000000035,88.28999999999999,367.095691276,6,0,6,0,6,0,6,28,41,0,3,3,0,0,0,0,0,3,0,0,0.045454545454545456
"A-2639","1,2-Benzenedicarboxylic acid, di-C8-10-branched alkyl esters, C9-rich",-6.6218178985,"CC(C)CCCCCCOC(=O)c1ccccc1C(=O)OCCCCCCC(C)C","CC(C)CCCCCCOC(=O)c1ccccc1C(=O)OCCCCCCC(C)C",-7.3970034191598115,"CC(C)CCCCCCOC(=O)c1ccccc1C(=O)OCCCCCCC(C)C",7.2132000000000085,52.60000000000001,418.308309824,4,0,16,0,4,0,4,30,72,0,1,1,0,0,0,0,0,1,0,0,0.6923076923076923
"A-2641","1,6-bis(2-ethylhexyl) hexanedioate",-6.5688749453,"CCCCC(CC)COC(=O)CCCCC(=O)OCC(CC)CCCC","CCCCC(CC)COC(=O)CCCCC(=O)OCC(CC)CCCC",-10.777836710059528,"CCCCC(CC)COC(=O)CCCCC(=O)OCC(CC)CCCC",6.066000000000007,52.60000000000001,370.308309824,4,0,17,0,4,0,4,26,68,2,0,0,0,0,0,0,0,0,0,0,0.9090909090909091
"A-2642","1,6-bis(2-methylnonyl) hexanedioate",-6.6301043221,"CC(C)CCCCCCCOC(=O)CCCCC(=O)OCCCCCCCC(C)C","CC(C)CCCCCCCOC(=O)CCCCC(=O)OCCCCCCCC(C)C",-19.050853878725267,"CC(C)CCCCCCCOC(=O)CCCCC(=O)OCCCCCCCC(C)C",7.62640000000001,52.60000000000001,426.37091008,4,0,21,0,4,0,4,30,80,0,0,0,0,0,0,0,0,0,0,0,0.9230769230769231
"A-2643","1,6-bis(7-methyloctyl) hexanedioate",-6.6005678007,"CC(C)CCCCCCOC(=O)CCCCC(=O)OCCCCCCC(C)C","CC(C)CCCCCCOC(=O)CCCCC(=O)OCCCCCCC(C)C",-20.650273900879313,"CC(C)CCCCCCOC(=O)CCCCC(=O)OCCCCCCC(C)C",6.8462000000000085,52.60000000000001,398.339609952,4,0,19,0,4,0,4,28,74,0,0,0,0,0,0,0,0,0,0,0,0.9166666666666666
"A-2644","1-(octyloxy)octane",-6.3846168146,"CCCCCCCCOCCCCCCCC","CCCCCCCCOCCCCCCCC",-1.3417277833237597,"CCCCCCCCOCCCCCCCC",5.724000000000006,9.23,242.26096570800001,1,0,14,0,1,0,1,17,51,0,0,0,0,0,0,0,0,0,0,0,1
"A-2645","1-(vinyloxy)octadecane",-6.4720818187,"C=COCCCCCCCCCCCCCCCCCC","C=COCCCCCCCCCCCCCCCCCC",3.9929254427574397,"C=COCCCCCCCCCCCCCCCCCC",7.4080000000000075,9.23,296.3079159,1,0,18,0,1,0,1,21,61,0,0,0,0,0,0,0,0,0,0,0,0.9
"A-2647","2-ethylhexyl 2-cyano-3,3-diphenylprop-2-enoate",-6.5580902807,"CCCCC(CC)COC(=O)C(C#N)=C(c1ccccc1)c1ccccc1","CCCCC(CC)COC(=O)C(C#N)=C(c1ccccc1)c1ccccc1",36.183645973935846,"CCCCC(CC)COC(=O)C(=C(c1ccccc1)c1ccccc1)C#N",5.771680000000005,50.09,361.20417910400005,3,0,9,0,3,0,3,27,54,1,2,2,0,0,0,0,0,2,0,0,0.3333333333333333
"A-2648","2-fluoro-4-[4-(4-propylcyclohexyl)cyclohexyl]-1-(3,4,5-trifluorophenyl)benzene",-6.6360312962,"CCCC1CCC(C2CCC(c3ccc(-c4cc(F)c(F)c(F)c4)c(F)c3)CC2)CC1","CCCC1CCC(C2CCC(c3ccc(-c4cc(F)c(F)c(F)c4)c(F)c3)CC2)CC1",71.60986005511329,"CCCC1CCC(C2CCC(c3ccc(c4cc(F)c(F)c(F)c4)c(F)c3)CC2)CC1",8.790300000000002,0,432.244013904,0,0,5,0,0,0,4,31,63,0,4,2,2,2,0,0,0,2,2,2,0.5555555555555556
"A-2649","2-octyldodecan-1-ol",-6.4750243489,"CCCCCCCCCCC(CO)CCCCCCCC","CCCCCCCCCCC(CO)CCCCCCCC",2.6541057975643993,"CCCCCCCCCCC(CO)CCCCCCCC",6.8763000000000085,20.23,298.323565964,1,1,17,1,1,0,1,21,63,1,0,0,0,0,0,0,0,0,0,0,1
"A-2650","Naphthalic anhydride",-6.2970532498,"O=C1OC(=O)c2cccc3cccc1c23","O=C1OC(=O)c2cccc3cccc1c23",26.013380115561745,"O=C1OC(=O)c2cccc3cccc1c23",2.1504000000000003,43.370000000000005,198.03169405199998,3,0,0,0,3,0,3,15,21,0,3,2,0,1,0,0,1,2,0,0,0
"A-2652","4-(2,4,4-trimethylpentan-2-yl)-N-[4-(2,4,4-trimethylpentan-2-yl)phenyl]aniline",-6.5951201849,"CC(C)(C)CC(C)(C)c1ccc(Nc2ccc(C(C)(C)CC(C)(C)C)cc2)cc1","CC(C)(C)CC(C)(C)c1ccc(Nc2ccc(C(C)(C)CC(C)(C)C)cc2)cc1",61.952476144904466,"CC(C)(C)CC(C)(C)c1ccc(Nc2ccc(C(C)(C)CC(C)(C)C)cc2)cc1",8.857800000000003,12.03,393.339550376,1,1,6,1,1,0,1,29,72,0,2,2,0,0,0,0,0,2,0,0,0.5714285714285714
"A-2658","N-[3-(dimethylamino)propyl]docosanamide",-6.6281415672,"CCCCCCCCCCCCCCCCCCCCCC(=O)NCCC[NH+](C)C","CCCCCCCCCCCCCCCCCCCCCC(=O)NCCC[NH+](C)C",-20.272137608920282,"CCCCCCCCCCCCCCCCCCCCCC(=O)NCCC[NH+](C)C",6.459100000000006,33.54,425.44654086409,3,2,24,2,1,1,3,30,87,0,0,0,0,0,0,0,0,0,0,0,0.9629629629629629
"A-2659","Octadecan-1-ol, ethoxylated",-6.4963012647,"CCCCCCCCCCCCCCCCCCOCC[O]","CCCCCCCCCCCCCCCCCCOCC[O]",13.924423865611793,"CCCCCCCCCCCCCCCCCCOCC[O]",6.695000000000007,29.13,313.310655552,2,0,19,0,1,0,2,22,63,0,0,0,0,0,0,0,0,0,0,0,1
"A-2662","[phenyl(2,4,6-trimethylbenzoyl)phosphoryl](2,4,6-trimethylphenyl)methanone",-6.6216674424,"Cc1cc(C)c(C(=O)P(=O)(C(=O)c2c(C)cc(C)cc2C)c2ccccc2)c(C)c1","Cc1cc(C)c(C(=O)P(=O)(C(=O)c2c(C)cc(C)cc2C)c2ccccc2)c(C)c1",128.3585801018272,"Cc1cc(C)c(C(=O)P(=O)(C(=O)c2c(C)cc(C)cc2C)c2ccccc2)c(C)c1",6.206320000000006,51.21,418.169781354,3,0,5,0,3,0,4,30,57,0,3,3,0,0,0,0,0,3,0,0,0.23076923076923078
"A-2665","dodecanoyl dodecaneperoxoate",-6.6005678007,"CCCCCCCCCCCC(=O)OOC(=O)CCCCCCCCCCC","CCCCCCCCCCCC(=O)OOC(=O)CCCCCCCCCCC",7.936552698238383,"CCCCCCCCCCCC(=O)OOC(=O)CCCCCCCCCCC",7.829600000000009,52.6,398.339609952,4,0,20,0,4,0,4,28,74,0,0,0,0,0,0,0,0,0,0,0,0.9166666666666666
"A-2673","2,2-bis[(nonanoyloxy)methyl]butyl nonanoate",-6.8410879515,"CCCCCCCCC(=O)OCC(CC)(COC(=O)CCCCCCCC)COC(=O)CCCCCCCC","CCCCCCCCC(=O)OCC(CC)(COC(=O)CCCCCCCC)COC(=O)CCCCCCCC",-35.892083137695266,"CCCCCCCCC(=O)OCC(CC)(COC(=O)CCCCCCCC)COC(=O)CCCCCCCC",9.264200000000002,78.9,554.454639704,6,0,28,0,6,0,6,39,101,0,0,0,0,0,0,0,0,0,0,0,0.9090909090909091
"A-2674","2,5-bis(1,1-dimethylpropyl)benzene-1,4-diol",-6.4955131172,"CCC(C)(C)c1cc(O)c(C(C)(C)CC)cc1O","CCC(C)(C)c1cc(O)c(C(C)(C)CC)cc1O",35.39479678963804,"CCC(C)(C)c1cc(O)c(C(C)(C)CC)cc1O",4.473000000000005,40.46,250.193280072,2,2,4,2,2,0,2,18,44,0,1,1,0,0,0,0,0,1,0,0,0.625
"A-2677","10,13-dimethyl-17-(2-methyl-1,3-dioxolan-2-yl)-1,2,4,9,10,11,12,13,14,15,16,17-dodecahydrospiro[cyclopenta[a]phenanthrene-3,2'-[1,3]dioxolane]",-6.7001197149,"CC1(C2CCC3C4=CC=C5CC6(CCC5(C)C4CCC32C)OCCO6)OCCO1","CC1(C2CCC3C4=CC=C5CC6(CCC5(C)C4CCC32C)OCCO6)OCCO1",86.09087796469757,"CC1(C2CCC3C4=CC=C5CC6(CCC5(C)C4CCC23C)OCCO6)OCCO1",4.9916000000000045,36.92,400.2613596319999,4,0,1,0,4,0,4,29,65,5,6,0,5,6,0,2,2,0,3,4,0.84
"A-2678","[(1S,2R,5S)-5-methyl-2-propan-2-ylcyclohexyl] acetate",-4.0668869332,"CC(=O)O[C@H]1C[C@@H](C)CC[C@@H]1C(C)C","CC(=O)O[C@H]1C[C@@H](C)CC[C@@H]1C(C)C",6.655377262168436,"CC(=O)O[C@H]1C[C@@H](C)CC[C@@H]1C(C)C",3.0103000000000018,26.3,198.161979944,2,0,2,0,2,0,2,14,36,3,1,0,1,1,0,0,0,0,1,1,0.9166666666666666
"A-2685","(2R)-2-[(2R,3R,4S)-3,4-dihydroxyoxolan-2-yl]-2-hydroxyethyl hexadecanoate",-6.9058735609,"CCCCCCCCCCCCCCCC(=O)OCC(O)[C@H]1OC[C@@H](O)[C@@H]1O","CCCCCCCCCCCCCCCC(=O)OCC(O)[C@H]1OC[C@@H](O)[C@@H]1O",28.220825361165232,"CCCCCCCCCCCCCCCC(=O)OCC(O)[C@H]1OC[C@@H](O)[C@@H]1O",3.492400000000002,96.22000000000001,402.2981390639999,6,3,17,3,6,0,6,28,70,4,1,0,1,1,0,1,1,0,0,0,0.9545454545454546
"A-2688","1,3-bis(heptanoyloxy)propan-2-yl heptanoate",-6.9330922951,"CCCCCCC(=O)OCC(COC(=O)CCCCCC)OC(=O)CCCCCC","CCCCCCC(=O)OCC(COC(=O)CCCCCC)OC(=O)CCCCCC",-24.72536740409991,"CCCCCCC(=O)OCC(COC(=O)CCCCCC)OC(=O)CCCCCC",5.895800000000007,78.9,428.31378912799994,6,0,20,0,6,0,6,30,74,0,0,0,0,0,0,0,0,0,0,0,0.875
"A-2690","1,3-bis[(2-ethylhexanoyl)oxy]propan-2-yl 2-ethylhexanoate",-6.97376589,"CCCCC(CC)C(=O)OCC(COC(=O)C(CC)CCCC)OC(=O)C(CC)CCCC","CCCCC(CC)C(=O)OCC(COC(=O)C(CC)CCCC)OC(=O)C(CC)CCCC",-6.297823091038778,"CCCCC(CC)C(=O)OCC(COC(=O)C(CC)CCCC)OC(=O)C(CC)CCCC",6.633800000000008,78.9,470.36073931999994,6,0,20,0,6,0,6,33,83,3,0,0,0,0,0,0,0,0,0,0,0.8888888888888888
"A-2692","1,6-bis(2-methylheptyl) hexanedioate",-6.869904941,"CC(C)CCCCCOC(=O)CCCCC(=O)OCCCCCC(C)C","CC(C)CCCCCOC(=O)CCCCC(=O)OCCCCCC(C)C",-15.595270828783661,"CC(C)CCCCCOC(=O)CCCCC(=O)OCCCCCC(C)C",6.066000000000007,52.60000000000001,370.308309824,4,0,17,0,4,0,4,26,68,0,0,0,0,0,0,0,0,0,0,0,0.9090909090909091
"A-2693","1-(octadecyloxy)octadecane",-7.0195208893,"CCCCCCCCCCCCCCCCCCOCCCCCCCCCCCCCCCCCC","CCCCCCCCCCCCCCCCCCOCCCCCCCCCCCCCCCCCC",-1.174312098614269,"CCCCCCCCCCCCCCCCCCOCCCCCCCCCCCCCCCCCC",13.525999999999975,9.23,522.573966988,1,0,34,0,1,0,1,37,111,0,0,0,0,0,0,0,0,0,0,0,1
"A-2694","2,2-bis[(heptanoyloxy)methyl]butyl heptanoate (non-preferred name)",-6.97376589,"CCCCCCC(=O)OCC(CC)(COC(=O)CCCCCC)COC(=O)CCCCCC","CCCCCCC(=O)OCC(CC)(COC(=O)CCCCCC)COC(=O)CCCCCC",-35.14471918475331,"CCCCCCC(=O)OCC(CC)(COC(=O)CCCCCC)COC(=O)CCCCCC",6.923600000000008,78.9,470.36073931999994,6,0,22,0,6,0,6,33,83,0,0,0,0,0,0,0,0,0,0,0,0.8888888888888888
"A-2695","2,2-dimethyl-3-[(9Z)-octadec-9-enoyloxy]propyl (9Z)-octadec-9-enoate",-7.1024714389,"CCCCCCCCC=CCCCCCCCC(=O)OCC(C)(C)COC(=O)CCCCCCCC=CCCCCCCCC","CCCCCCCCC=CCCCCCCCC(=O)OCC(C)(C)COC(=O)CCCCCCCC=CCCCCCCCC",-22.886555299820646,"CCCCCCCCC=CCCCCCCCC(=O)OCC(C)(C)COC(=O)CCCCCCCC=CCCCCCCCC",13.173999999999976,52.6,632.5743609119999,4,0,34,0,4,0,4,45,121,0,0,0,0,0,0,0,0,0,0,0,0.8536585365853658
"A-2696","2,2-dimethylpropane-1,3-diyl dioctanoate",-6.8531467823,"CCCCCCCC(=O)OCC(C)(C)COC(=O)CCCCCCC","CCCCCCCC(=O)OCC(C)(C)COC(=O)CCCCCCC",-21.097203323869476,"CCCCCCCC(=O)OCC(C)(C)COC(=O)CCCCCCC",5.8200000000000065,52.6,356.29265976,4,0,16,0,4,0,4,25,65,0,0,0,0,0,0,0,0,0,0,0,0.9047619047619048
"A-2698","2-Butenedioic acid (E)-, di-C16-18-alkyl esters",-7.0740773653,"CCCCCCCCCCCCCCCCCOC(=O)C=CC(=O)OCCCCCCCCCCCCCCCCC","CCCCCCCCCCCCCCCCCOC(=O)C=CC(=O)OCCCCCCCCCCCCCCCCC",-31.568302517774168,"CCCCCCCCCCCCCCCCCOC(=O)C=CC(=O)OCCCCCCCCCCCCCCCCC",12.37179999999998,52.60000000000001,592.5430607839999,4,0,34,0,4,0,4,42,114,0,0,0,0,0,0,0,0,0,0,0,0.8947368421052632
"A-2702","2-ethylhexyl octadecanoate",-6.8994921961,"CCCCCCCCCCCCCCCCCC(=O)OCCCCCCCC","CCCCCCCCCCCCCCCCCC(=O)OCCCCCCCC",-11.327477026143024,"CCCCCCCCCCCCCCCCCC(=O)OCCCCCCCC",9.151600000000002,26.3,396.396730904,2,0,23,0,2,0,2,28,80,0,0,0,0,0,0,0,0,0,0,0,0.9615384615384616
"A-2703","2-tetradecyloxirane",-6.6820204584,"CCCCCCCCCCCCCCC1CO1","CCCCCCCCCCCCCCC1CO1",-0.5771549651468499,"CCCCCCCCCCCCCCC1CO1",5.476400000000005,12.53,240.24531564400002,1,0,13,0,1,0,1,17,49,1,1,0,1,1,0,1,1,0,0,0,1
"A-2704","3-(3,5-di-tert-butyl-4-hydroxyphenyl)-N'-[3-(3,5-di-tert-butyl-4-hydroxyphenyl)propanoyl]propanehydrazide",-7.04359803,"CC(C)(C)c1cc(CCC(=O)NNC(=O)CCc2cc(C(C)(C)C)c(O)c(C(C)(C)C)c2)cc(C(C)(C)C)c1O","CC(C)(C)c1cc(CCC(=O)NNC(=O)CCc2cc(C(C)(C)C)c(O)c(C(C)(C)C)c2)cc(C(C)(C)C)c1O",42.738446361931096,"CC(C)(C)c1cc(CCC(=O)NNC(=O)CCc2cc(C(C)(C)C)c(O)c(C(C)(C)C)c2)cc(C(C)(C)C)c1O",7.000600000000009,98.66000000000001,552.3927081439999,6,4,6,4,4,2,6,40,92,0,2,2,0,0,0,0,0,2,0,0,0.5882352941176471
"A-2705","3-(heptanoyloxy)-2,2-bis[(heptanoyloxy)methyl]propyl heptanoate",-7.0680633512,"CCCCCCC(=O)OCC(COC(=O)CCCCCC)(COC(=O)CCCCCC)COC(=O)CCCCCC","CCCCCCC(=O)OCC(COC(=O)CCCCCC)(COC(=O)CCCCCC)COC(=O)CCCCCC",-58.27956953940185,"CCCCCCC(=O)OCC(COC(=O)CCCCCC)(COC(=O)CCCCCC)COC(=O)CCCCCC",8.02720000000001,105.20000000000002,584.4288188799999,8,0,28,0,8,0,8,41,101,0,0,0,0,0,0,0,0,0,0,0,0.8787878787878788
"A-2709","3-hydroxy-2-(hydroxymethyl)-2-{[(9Z)-octadec-9-enoyloxy]methyl}propyl (9Z)-octadec-9-enoate",-7.1238862525,"CCCCCCCCC=CCCCCCCCC(=O)OCC(CO)(CO)COC(=O)CCCCCCCC=CCCCCCCCC","CCCCCCCCC=CCCCCCCCC(=O)OCC(CO)(CO)COC(=O)CCCCCCCC=CCCCCCCCC",-35.931933725248605,"CCCCCCCCC=CCCCCCCCC(=O)OCC(CO)(CO)COC(=O)CCCCCCCC=CCCCCCCCC",11.118799999999993,93.06,664.5641901519999,6,2,36,2,6,0,6,47,123,0,0,0,0,0,0,0,0,0,0,0,0.8536585365853658
"A-2710","3-methylbutyl dodecanoate",-6.733128222,"CCCCCCCCCCCC(=O)OCCC(C)C","CCCCCCCCCCCC(=O)OCCC(C)C",-10.629794761806185,"CCCCCCCCCCCC(=O)OCCC(C)C",5.496600000000005,26.3,270.255880328,2,0,13,0,2,0,2,19,53,0,0,0,0,0,0,0,0,0,0,0,0.9411764705882353
"A-2714","Fatty acids, C5-9, hexaesters with dipentaerythritol",-6.8304564999,"CCCCC(=O)OCC(CO)(CO)COCC(CO)(CO)CO","CCCCC(=O)OCC(CO)(CO)COCC(CO)(CO)CO",-36.406319368240446,"CCCCC(=O)OCC(CO)(CO)COCC(CO)(CO)CO",-1.3292999999999988,136.68,338.19406791999995,8,5,14,5,8,0,8,23,53,0,0,0,0,0,0,0,0,0,0,0,0.9333333333333333
"A-2715","N,N'-bis(2,6-diisopropylphenyl)carbodiimide",-6.8604110817,"CC(C)c1cccc(C(C)C)c1N=C=Nc1c(C(C)C)cccc1C(C)C","CC(C)c1cccc(C(C)C)c1N=C=Nc1c(C(C)C)cccc1C(C)C",25.34783810906306,"CC(C)c1cccc(C(C)C)c1N=C=Nc1c(C(C)C)cccc1C(C)C",8.317300000000005,24.72,362.272199088,2,0,6,0,2,0,2,27,61,0,2,2,0,0,0,0,0,2,0,0,0.48
"A-2720","diisodecyl azelate",-6.9719833207,"CC(C)CCCCCCCOC(=O)CCCCCCCC(=O)OCCCCCCCC(C)C","CC(C)CCCCCCCOC(=O)CCCCCCCC(=O)OCCCCCCCC(C)C",-17.641550179502232,"CC(C)CCCCCCCOC(=O)CCCCCCCC(=O)OCCCCCCCC(C)C",8.796700000000005,52.60000000000001,468.417860272,4,0,24,0,4,0,4,33,89,0,0,0,0,0,0,0,0,0,0,0,0.9310344827586207
"A-2721","ditetradecyl but-2-enedioate",-7.0076009975,"CCCCCCCCCCCCCCOC(=O)C=CC(=O)OCCCCCCCCCCCCCC","CCCCCCCCCCCCCCOC(=O)C=CC(=O)OCCCCCCCCCCCCCC",-31.139484618879035,"CCCCCCCCCCCCCCOC(=O)C=CC(=O)OCCCCCCCCCCCCCC",10.031199999999997,52.60000000000001,508.4491604,4,0,28,0,4,0,4,36,96,0,0,0,0,0,0,0,0,0,0,0,0.875
"A-2722","docosanamide",-6.8320079078,"CCCCCCCCCCCCCCCCCCCCCC(N)=O","CCCCCCCCCCCCCCCCCCCCCC(N)=O",0.7820285689294688,"CCCCCCCCCCCCCCCCCCCCCC(=O)N",7.293600000000008,43.09,339.35011506,2,2,20,1,1,1,2,24,69,0,0,0,0,0,0,0,0,0,0,0,0.9545454545454546
"A-2723","docosyl docosanoate",-7.1133991412,"CCCCCCCCCCCCCCCCCCCCCCOC(=O)CCCCCCCCCCCCCCCCCCCCC","CCCCCCCCCCCCCCCCCCCCCCOC(=O)CCCCCCCCCCCCCCCCCCCCC",-15.174466885254823,"CCCCCCCCCCCCCCCCCCCCCCOC(=O)CCCCCCCCCCCCCCCCCCCCC",16.17339999999996,26.3,648.6784320559999,2,0,41,0,2,0,2,46,134,0,0,0,0,0,0,0,0,0,0,0,0.9772727272727273
"A-2724","dodecyl (9Z)-octadec-9-enoate",-6.9550061959,"CCCCCCCCC=CCCCCCCCC(=O)OCCCCCCCCCCCC","CCCCCCCCC=CCCCCCCCC(=O)OCCCCCCCCCCCC",-12.99881698470467,"CCCCCCCCC=CCCCCCCCC(=O)OCCCCCCCCCCCC",10.487999999999992,26.3,450.443681096,2,0,26,0,2,0,2,32,90,0,0,0,0,0,0,0,0,0,0,0,0.9
"A-2726","hexadecyl 2-ethylhexanoate",-6.8676395216,"CCCCCCCCCCCCCCCCOC(=O)C(CC)CCCC","CCCCCCCCCCCCCCCCOC(=O)C(CC)CCCC",-8.248373724616869,"CCCCCCCCCCCCCCCCOC(=O)C(CC)CCCC",8.227300000000008,26.3,368.365430776,2,0,20,0,2,0,2,26,74,1,0,0,0,0,0,0,0,0,0,0,0.9583333333333334
"A-2727","hexyl dodecanoate",-6.7550878414,"CCCCCCCCCCCC(=O)OCCCCCC","CCCCCCCCCCCC(=O)OCCCCCC",-10.517091088723973,"CCCCCCCCCCCC(=O)OCCCCCC",6.030800000000006,26.3,284.271530392,2,0,15,0,2,0,2,20,56,0,0,0,0,0,0,0,0,0,0,0,0.9444444444444444
"A-2728","isooctadecanoic acid, monoester with glycerol",-6.8555954685,"CC(C)CCCCCCCCCCCCCCC(=O)OC(CO)CO","CC(C)CCCCCCCCCCCCCCC(=O)OC(CO)CO",0.004565641271398135,"CC(C)CCCCCCCCCCCCCCC(=O)OC(CO)CO",5.000200000000006,66.76,358.30830982399993,4,2,18,2,4,0,4,25,67,0,0,0,0,0,0,0,0,0,0,0,0.9523809523809523
"A-2730","octadec-9-en-1-yl docos-13-enoate",-7.0711792069,"CCCCCCCCC=CCCCCCCCCCCCC(=O)OCCCCCCCCC=CCCCCCCCC","CCCCCCCCC=CCCCCCCCCCCCC(=O)OCCCCCCCCC=CCCCCCCCC",-10.220275953738255,"CCCCCCCCC=CCCCCCCCCCCCC(=O)OCCCCCCCCC=CCCCCCCCC",14.164999999999969,26.3,588.5845316719999,2,0,35,0,2,0,2,42,118,0,0,0,0,0,0,0,0,0,0,0,0.875
"A-2731","octadec-9-en-1-yl octadec-9-enoate",-7.0277066834,"CCCCCCCCC=CCCCCCCCCOC(=O)CCCCCCC=CCCCCCCCCC","CCCCCCCCC=CCCCCCCCCOC(=O)CCCCCCC=CCCCCCCCCC",-10.802523455931201,"CCCCCCCCC=CCCCCCCCCOC(=O)CCCCCCC=CCCCCCCCCC",12.60459999999998,26.3,532.521931416,2,0,31,0,2,0,2,38,106,0,0,0,0,0,0,0,0,0,0,0,0.8611111111111112
"A-2732","octyl octanoate",-6.709998828,"CCCCCCCCOC(=O)CCCCCCC","CCCCCCCCOC(=O)CCCCCCC",-11.974505707176728,"CCCCCCCCOC(=O)CCCCCCC",5.250600000000006,26.3,256.240230264,2,0,13,0,2,0,2,18,50,0,0,0,0,0,0,0,0,0,0,0,0.9375
"A-2733","tetradecyl octadec-9-enoate",-6.9812258596,"CCCCCCCCC=CCCCCCCCC(=O)OCCCCCCCCCCCCCC","CCCCCCCCC=CCCCCCCCC(=O)OCCCCCCCCCCCCCC",-12.382608055181356,"CCCCCCCCC=CCCCCCCCC(=O)OCCCCCCCCCCCCCC",11.268199999999988,26.3,478.474981224,2,0,28,0,2,0,2,34,96,0,0,0,0,0,0,0,0,0,0,0,0.90625
"A-2734","tris(2-ethylhexyl) 2-acetoxypropane-1,2,3-tricarboxylate",-7.0575200469,"CCCCC(CC)COC(=O)CC(CC(=O)OCC(CC)CCCC)(OC(C)=O)C(=O)OCC(CC)CCCC","CCCCC(CC)COC(=O)CC(CC(=O)OCC(CC)CCCC)(OC(C)=O)C(=O)OCC(CC)CCCC",-50.421484564225054,"CCCCC(CC)COC(=O)CC(CC(=O)OCC(CC)CCCC)(OC(=O)C)C(=O)OCC(CC)CCCC",7.3473000000000095,105.2,570.4131688159999,8,0,24,0,8,0,8,40,98,3,0,0,0,0,0,0,0,0,0,0,0.875