"ID","Name","Solubility","SMILES Canonical","Smiles (Optimized Geometry)","Energy","Smiles","SlogP","TPSA","ExactMW","NumLipinskiHBA","NumLipinskiHBD","NumRotatableBonds","NumHBD","NumHBA","NumAmideBonds","NumHeteroAtoms","NumHeavyAtoms","NumAtoms","NumStereocenters","NumRings","NumAromaticRings","NumSaturatedRings","NumAliphaticRings","NumAromaticHeterocycles","NumSaturatedHeterocycles","NumAliphaticHeterocycles","NumAromaticCarbocycles","NumSaturatedCarbocycles","NumAliphaticCarbocycles","FractionCSP3"
"B-1505","2-amino-4,6-dimethylpyrimidine",-0.4884,"Cc1cc(C)nc(N)n1","Cc1cc(C)nc(N)n1",-4.114246281421603,"Cc1cc(C)nc(N)n1",0.6756399999999999,51.8,123.07964728799999,3,2,0,1,3,0,3,9,18,0,1,1,0,0,1,0,0,0,0,0,0.3333333333333333
"B-1506","quinoline, decahydro-",-1.0831,"C1CC[C@@H]2CCC[NH2+][C@H]2C1","C1CC[C@@H]2CCC[NH2+][C@H]2C1",15.250703127695461,"C1CC[C@@H]2CCC[NH2+][C@H]2C1",0.9024000000000002,16.61,140.14337599609,1,2,0,1,0,0,1,10,28,2,2,0,2,2,0,1,1,0,1,1,1
"B-1508","9,10-dihydrophenanthrene",-4.6347,"c1ccc2c(c1)CCc1ccccc1-2","c1ccc2c(c1)CCc1ccccc1-2",38.14174511973583,"c1ccc2c(c1)CCc1ccccc21",3.452200000000002,0,180.093900384,0,0,0,0,0,0,0,14,26,0,3,2,0,1,0,0,0,2,0,1,0.14285714285714285
"B-1509","benzoic acid, 2-benzoylhydrazide",-1.5883,"O=C(NNC(=O)c1ccccc1)c1ccccc1","O=C(NNC(=O)c1ccccc1)c1ccccc1",38.209685481123756,"O=C(NNC(=O)c1ccccc1)c1ccccc1",1.7613999999999999,58.2,240.089877624,4,2,2,2,2,2,4,18,30,0,2,2,0,0,0,0,0,2,0,0,0
"B-1511","phosphoric acid, diethyl propyl ester",0.4063,"CCCOP(=O)(OCC)OCC","CCCOP(=O)(OCC)OCC",-84.28905767694484,"CCCOP(=O)(OCC)OCC",2.594100000000001,44.760000000000005,196.086445654,4,0,7,0,4,0,5,12,29,0,0,0,0,0,0,0,0,0,0,0,1
"B-1512","tributylphosphine oxide",-0.5932,"CCCCP(=O)(CCCC)CCCC","CCCCP(=O)(CCCC)CCCC",3.384765875160493,"CCCCP(=O)(CCCC)CCCC",4.749800000000005,17.07,218.17995211399997,1,0,9,0,1,0,2,14,41,0,0,0,0,0,0,0,0,0,0,0,1
"B-1513","diethyl glutarate",-1.3297,"CCOC(=O)CCCC(=O)OCC","CCOC(=O)CCCC(=O)OCC",-23.799424872271345,"CCOC(=O)CCCC(=O)OCC",1.2829000000000002,52.60000000000001,188.104858992,4,0,6,0,4,0,4,13,29,0,0,0,0,0,0,0,0,0,0,0,0.7777777777777778
"B-1517","4,4'-oxydi-2-butanol",0.7899,"CC(O)CCOCCC(C)O","CC(O)CCOCCC(C)O",-4.929757672690732,"CC(O)CCOCCC(C)O",0.5448,49.69,162.125594436,3,2,6,2,3,0,3,11,29,2,0,0,0,0,0,0,0,0,0,0,1
"B-1518","1,12-dodecanedicarboxylic acid",-3.1112,"O=C([O-])CCCCCCCCCCCCC(=O)[O-]","O=C([O-])CCCCCCCCCCCCC(=O)[O-]",24.757278440622354,"O=C([O-])CCCCCCCCCCCCC(=O)[O-]",1.1673999999999995,80.25999999999999,256.16855640782,4,0,13,0,4,0,4,18,42,0,0,0,0,0,0,0,0,0,0,0,0.8571428571428571
"B-1519","1,3-dioxolane, 2-(1-methylethyl)-",-0.0651,"CC(C)C1OCCO1","CC(C)C1OCCO1",7.04513248329798,"CC(C)C1OCCO1",1.0152999999999999,18.46,116.083729624,2,0,1,0,2,0,2,8,20,0,1,0,1,1,0,1,1,0,0,0,1
"B-1520","pyrimidine, 2-(methylthio)-",-0.402,"CSc1ncccn1","CSc1ncccn1",-44.027255306801635,"CSc1ncccn1",1.1985,25.78,126.02516919199999,2,0,1,0,3,0,3,8,14,0,1,1,0,0,1,0,0,0,0,0,0.2
"B-1521","2,6-dimethyl-1,3-dioxan-4-ol acetate",0.759,"CC(=O)OC1CC(C)OC(C)O1","CC(=O)OC1CC(C)OC(C)O1",-62.00370411343884,"CC(=O)OC1CC(C)OC(C)O1",1.0470000000000002,44.760000000000005,174.089208928,4,0,1,0,4,0,4,12,26,3,1,0,1,1,0,1,1,0,0,0,0.875
"B-1522","1h-purine-2,6-dione, 3,7-dihydro-1,3,8-trimethyl",-0.7276,"Cc1nc2c([nH]1)c(=O)n(C)c(=O)n2C","Cc1nc2c([nH]1)C(=O)N(C)C(=O)N2C",-135.08128769974238,"Cc1nc2c([nH]1)c(=O)n(C)c(=O)n2C",0.3599200000000001,69.3,194.08037556,6,1,0,1,3,3,6,14,24,0,2,1,0,1,1,0,1,0,0,0,0.375
"B-1523","1h-purine-2,6-dione, 3,7-dihydro-1,3,7,8-tetrame",-1.4493,"Cc1nc2c(c(=O)n(C)c(=O)n2C)n1C","Cc1nc2c(n1C)C(=O)N(C)C(=O)N2C",-127.58189823466525,"Cc1nc2c(n1C)c(=O)n(C)c(=O)n2C",0.37032,58.440000000000005,208.096025624,6,0,0,0,4,3,6,15,27,0,2,1,0,1,1,0,1,0,0,0,0.4444444444444444
"B-1524","l-tyrosine, n-acetyl-, ethyl ester",-1.8586,"CCOC(=O)[C@H](Cc1ccc(O)cc1)NC(C)=O","CCOC(=O)[C@H](Cc1ccc(O)cc1)NC(C)=O",5.3559928688901675,"CCOC(=O)[C@H](Cc1ccc(O)cc1)NC(=O)C",1.0025,75.63,251.115758024,5,2,5,2,4,1,5,18,35,1,1,1,0,0,0,0,0,1,0,0,0.38461538461538464
"B-1525","methoproptryne",-2.9284,"COCCCNc1nc(NC(C)C)nc(SC)n1","COCCCNc1nc(NC(C)C)nc(SC)n1",-190.65555078074814,"COCCCNc1nc(NC(C)C)nc(SC)n1",1.8621999999999999,71.96000000000001,271.146681292,6,2,8,2,7,0,7,18,39,0,1,1,0,0,1,0,0,0,0,0,0.7272727272727273
"B-1526","2,4-bis((3-methoxypropyl)amino)-6-(methylthio)-s",-3.4792,"COCCCNc1nc(NCCCOC)nc(SC)n1","COCCCNc1nc(NCCCOC)nc(SC)n1",-195.41526487703314,"COCCCNc1nc(NCCCOC)nc(SC)n1",1.4903000000000002,81.19,301.157245976,7,2,11,2,8,0,8,20,43,0,1,1,0,0,1,0,0,0,0,0,0.75
"B-1528","androst-5-en-17-one,3-(acetyloxy),3-beta-",-4.4584,"CC(=O)O[C@H]1CC[C@@]2(C)C(=CC[C@H]3[C@@H]4CCC(=O)[C@@]4(C)CC[C@@H]32)C1","CC(=O)O[C@H]1CC[C@@]2(C)C(=CC[C@H]3[C@@H]4CCC(=O)[C@@]4(C)CC[C@@H]32)C1",38.6249926435574,"CC(=O)O[C@H]1CC[C@@]2(C)C(=CC[C@H]3[C@@H]4CCC(=O)[C@@]4(C)CC[C@H]23)C1",4.450000000000005,43.370000000000005,330.21949481999997,3,0,1,0,3,0,3,24,54,6,4,0,3,4,0,0,0,0,3,4,0.8095238095238095
"B-1529","kebuzone",-3.2676,"CC(=O)CCC1C(=O)N(c2ccccc2)N(c2ccccc2)C1=O","CC(=O)CCC1C(=O)N(c2ccccc2)N(c2ccccc2)C1=O",47.29100834214554,"CC(=O)CCC1C(=O)N(c2ccccc2)N(c2ccccc2)C1=O",2.966800000000001,57.690000000000005,322.13174243599997,5,0,5,0,3,2,5,24,42,0,3,2,1,1,0,1,1,2,0,0,0.21052631578947367
"B-1532","allylidenediacetate",-1.2449,"C=CC(OC(C)=O)OC(C)=O","C=CC(OC(C)=O)OC(C)=O",-56.252531281414235,"C=CC(OC(=O)C)OC(=O)C",0.6247,52.6,158.0579088,4,0,3,0,4,0,4,11,21,0,0,0,0,0,0,0,0,0,0,0,0.42857142857142855
"B-1533","acetamide, n,n'-1,2-ethanediylbis-",0.6755,"CC(=O)NCCNC(C)=O","CC(=O)NCCNC(C)=O",-23.279985999740468,"CC(=O)NCCNC(=O)C",-0.7414000000000003,58.2,144.089877624,4,2,3,2,2,2,4,10,22,0,0,0,0,0,0,0,0,0,0,0,0.6666666666666666
"B-1539","2,4,6-triethoxy-s-triazine",-1.4838,"CCOc1nc(OCC)nc(OCC)n1","CCOc1nc(OCC)nc(OCC)n1",-169.89766786356498,"CCOc1nc(OCC)nc(OCC)n1",1.0676999999999999,66.36,213.11134134,6,0,6,0,6,0,6,15,30,0,1,1,0,0,1,0,0,0,0,0,0.6666666666666666
"B-1540","3-nitrofluoranthene",-7.1031,"O=[N+]([O-])c1ccc2c3c(cccc13)-c1ccccc1-2","O=[N+]([O-])c1ccc2c3c(cccc13)-c1ccccc1-2",80.34761972701043,"O=[N+]([O-])c1ccc2c3c(cccc13)c1ccccc21",4.395400000000002,43.14,247.063328528,3,0,1,0,2,0,3,19,28,0,4,3,0,1,0,0,0,3,0,1,0
"B-1541","methacycline",-1.768,"C=C1c2cccc(O)c2C([O-])=C2C(=O)[C@]3(O)C(=O)C(=C([NH3+])[O-])C(=O)[C@@H]([NH+](C)C)[C@@H]3[C@@H](O)[C@H]12","C=C1c2cccc(O)c2C([O-])=C2C(=O)[C@]3(O)C(=O)C(=C([NH3+])[O-])C(=O)[C@@H]([NH+](C)C)[C@@H]3[C@@H](O)[C@H]12",-40.81297748940453,"C=C1c2cccc(O)c2C(=C2C(=O)[C@]3(O)C(=O)C(=C([NH3+])[O-])C(=O)[C@@H]([NH+](C)C)[C@@H]3[C@@H](O)[C@H]12)[O-]",-5.123799999999996,190.09999999999997,442.13761566399995,10,7,1,5,8,0,10,32,54,5,4,1,2,3,0,0,0,1,2,3,0.3181818181818182
"B-1542","amidothion",-1.1356,"COCCNC(=O)CSP(=S)(OC)OC","COCCNC(=O)CSP(=S)(OC)OC",-73.70452491588006,"COCCNC(=O)CSP(=S)(OC)OC",0.9995,56.790000000000006,273.02583662200004,5,1,8,1,6,1,8,15,31,0,0,0,0,0,0,0,0,0,0,0,0.8571428571428571
"B-1543","demeton-s-methyl",-1.8438,"CCSCCSP(=O)(OC)OC","CCSCCSP(=O)(OC)OC",-74.47140487267013,"CCSCCSP(=O)(OC)OC",2.8736000000000015,35.53,230.02002297,3,0,7,0,5,0,6,12,27,0,0,0,0,0,0,0,0,0,0,0,1
"B-1545","hexanedioic acid, 2,3,3-trimethyl-",-1.5265,"CC(C(=O)[O-])C(C)(C)CCC(=O)[O-]","CC(C(=O)[O-])C(C)(C)CCC(=O)[O-]",65.7438377494908,"CC(C(=O)[O-])C(C)(C)CCC(=O)[O-]",-1.071299999999999,80.25999999999999,186.09030608782,4,0,5,0,4,0,4,13,27,1,0,0,0,0,0,0,0,0,0,0,0.7777777777777778
"B-1546","n-(hydroxymethyl)acrylamide",0.8101,"C=CC(=O)NCO","C=CC(=O)NCO",-24.69175498629816,"C=CC(=O)NCO",-0.7616000000000003,49.33,101.047678464,3,2,2,2,2,1,3,7,14,0,0,0,0,0,0,0,0,0,0,0,0.25
"B-1547","butanamide, n,n'-1,2-ethanediylbis-",-0.6222,"CCCC(=O)NCCNC(=O)CCC","CCCC(=O)NCCNC(=O)CCC",-19.780442754765577,"CCCC(=O)NCCNC(=O)CCC",0.8189999999999995,58.2,200.15247788,4,2,7,2,2,2,4,14,34,0,0,0,0,0,0,0,0,0,0,0,0.8
"B-1548","6-undecanone",-3.5322,"CCCCCC(=O)CCCCC","CCCCCC(=O)CCCCC",2.126719212913321,"CCCCCC(=O)CCCCC",3.7161000000000026,17.07,170.167065324,1,0,8,0,1,0,1,12,34,0,0,0,0,0,0,0,0,0,0,0,0.9090909090909091
"B-1549","butyl nitrate",-2.0268,"CCCCO[N+](=O)[O-]","CCCCO[N+](=O)[O-]",-18.214062451165773,"CCCCO[N+](=O)[O-]",0.9948,52.370000000000005,119.058243148,4,0,4,0,3,0,4,8,17,0,0,0,0,0,0,0,0,0,0,0,1
"B-1551","n-nitrosopyrrolidine",0.9995,"O=NN1CCCC1","O=NN1CCCC1",1.1399732848293844,"O=NN1CCCC1",0.7636000000000001,32.67,100.063662876,3,0,1,0,2,0,3,7,15,0,1,0,1,1,0,1,1,0,0,0,1
"B-1552","n-nitrosohexamethyleneimine",-1.0006,"O=NN1CCCCCC1","O=NN1CCCCCC1",7.1406932545909845,"O=NN1CCCCCC1",1.5438,32.67,128.094963004,3,0,1,0,2,0,3,9,21,0,1,0,1,1,0,1,1,0,0,0,1
"B-1555","2-azacyclo-nonanone",0.6329,"O=C1CCCCCCCN1","O=C1CCCCCCCN1",4.433141772634691,"O=C1CCCCCCCN1",1.4568,29.1,141.1153641,2,1,0,1,1,1,2,10,25,0,1,0,1,1,0,1,1,0,0,0,0.875
"B-1556","2,3-dihydro-1,2-benzisothiazole-1,1-dioxide",-1.5208,"O=S1(=O)NCc2ccccc21","O=S1(=O)NCc2ccccc21",-11.239465669217275,"O=S1(=O)NCc2ccccc12",0.4785000000000001,46.17,169.019749464,3,1,0,1,2,0,4,11,18,0,2,1,0,1,0,0,1,1,0,0,0.14285714285714285
"B-1558","n-benzyl-n-methylnitrosoamine",-1.5224,"CN(Cc1ccccc1)N=O","CN(Cc1ccccc1)N=O",9.54861128432162,"CN(Cc1ccccc1)N=O",1.7997999999999998,32.67,150.07931294,3,0,3,0,2,0,3,11,21,0,1,1,0,0,0,0,0,1,0,0,0.25
"B-1561","p-methylphenoxyacetic acid",-2.1414,"Cc1ccc(OCC(=O)[O-])cc1","Cc1ccc(OCC(=O)[O-])cc1",67.88996831913325,"Cc1ccc(OCC(=O)[O-])cc1",0.12371999999999972,49.36,165.05571772791,3,0,3,0,3,0,3,12,21,0,1,1,0,0,0,0,0,1,0,0,0.2222222222222222
"B-1564","cyolane",-2.5941,"CCOP(=O)(N=C1SCCS1)OCC","CCOP(=O)(N=C1SCCS1)OCC",-147.23435366466907,"CCOP(=O)(N=C1SCCS1)OCC",3.0035000000000016,47.89,255.015271938,4,0,5,0,5,0,7,14,28,0,1,0,1,1,0,1,1,0,0,0,0.8571428571428571
"B-1566","phosphoramidic acid, (4-methyl-1,3-dithiolan-2-y",-3.6744,"CCOP(=O)(N=C1SCC(C)S1)OCC","CCOP(=O)(N=C1SCC(C)S1)OCC",-146.01918068798403,"CCOP(=O)(N=C1SCC(C)S1)OCC",3.392000000000002,47.89,269.030922002,4,0,5,0,5,0,7,15,31,1,1,0,1,1,0,1,1,0,0,0,0.875
"B-1569","medrogestone",-5.2721,"CC(=O)C1(C)CCC2C3C=C(C)C4=CC(=O)CCC4(C)C3CCC21C","CC(=O)C1(C)CCC2C3C=C(C)C4=CC(=O)CCC4(C)C3CCC21C",64.63675213746015,"CC(=O)C1(C)CCC2C3C=C(C)C4=CC(=O)CCC4(C)C3CCC12C",5.279700000000005,34.14,340.240230264,2,0,1,0,2,0,2,25,57,6,4,0,2,4,0,0,0,0,2,4,0.7391304347826086
"B-1572","acetic acid, (nitrooxy)-, ethyl ester",-1.7111,"CCOC(=O)CO[N+](=O)[O-]","CCOC(=O)CO[N+](=O)[O-]",-27.592088683184222,"CCOC(=O)CO[N+](=O)[O-]",-0.24219999999999975,78.67,149.032422324,6,0,4,0,5,0,6,10,17,0,0,0,0,0,0,0,0,0,0,0,0.75
"B-1573","glycine, n-(ethoxycarbonyl)-, ethyl ester",-0.2435,"CCOC(=O)CNC(=O)OCC","CCOC(=O)CNC(=O)OCC",-34.19319039906804,"CCOC(=O)CNC(=O)OCC",0.2955999999999999,64.63,175.084457896,5,1,4,1,4,1,5,12,25,0,0,0,0,0,0,0,0,0,0,0,0.7142857142857143
"B-1574","2-hydroxypropyl acrylate",0.8856,"C=CC(=O)OCC(C)O","C=CC(=O)OCC(C)O",-1.6785874374278684,"C=CC(=O)OCC(C)O",0.09639999999999987,46.53,130.06299418,3,1,3,1,3,0,3,9,19,1,0,0,0,0,0,0,0,0,0,0,0.5
"B-1576","1-pentyl nitrate",-2.568,"CCCCCO[N+](=O)[O-]","CCCCCO[N+](=O)[O-]",-18.31650208954686,"CCCCCO[N+](=O)[O-]",1.3849,52.370000000000005,133.073893212,4,0,5,0,3,0,4,9,20,0,0,0,0,0,0,0,0,0,0,0,1
"B-1577","2,5-dimethyltetrahydrofuran",0.0723,"CC1CCC(C)O1","CC1CCC(C)O1",4.289733763187812,"CC1CCC(C)O1",1.5737999999999999,9.23,100.088815004,1,0,0,0,1,0,1,7,19,2,1,0,1,1,0,1,1,0,0,0,1
"B-1578","4-methyl-n-oxidepyridine",0.9621,"Cc1cc[n+]([O-])cc1","Cc1cc[n+]([O-])cc1",15.550618689409015,"Cc1cc[n+]([O-])cc1",0.62842,26.939999999999998,109.052763844,2,0,0,0,1,0,2,8,15,0,1,1,0,0,1,0,0,0,0,0,0.16666666666666666
"B-1579","3-methyl-n-oxidepyridine",0.9621,"CC1=CC=C[NH+2]([O-])[CH-]1","CC1=CC=C[NH+2]([O-])[CH-]1",18.290167904247536,"CC1=CC=C[NH+2]([O-])[CH-]1",0.004490000000000383,30.46,110.060588876,2,1,0,0,1,0,2,8,16,1,1,0,0,1,0,0,1,0,0,0,0.16666666666666666
"B-1581","azacycloundecan-2-one",-1.8862,"O=C1CCCCCCCCCN1","O=C1CCCCCCCCCN1",2.7296162167447795,"O=C1CCCCCCCCCN1",2.237,29.1,169.146664228,2,1,0,1,1,1,2,12,31,0,1,0,1,1,0,1,1,0,0,0,0.9
"B-1582","desmetryne",-2.5656,"CNc1nc(NC(C)C)nc(SC)n1","CNc1nc(NC(C)C)nc(SC)n1",-180.5475872476049,"CNc1nc(NC(C)C)nc(SC)n1",1.4555,62.730000000000004,213.10481647999998,5,2,4,2,6,0,6,14,29,0,1,1,0,0,1,0,0,0,0,0,0.625
"B-1583","1h-purine-2,6-dione, 7-butyl-3,7-dihydro-1,3-dim",-1.8069,"CCCCn1cnc2c1c(=O)n(C)c(=O)n2C","CCCCn1cnc2c1C(=O)N(C)C(=O)N2C",-133.6081548158132,"CCCCn1cnc2c1c(=O)n(C)c(=O)n2C",1.3250000000000002,58.440000000000005,236.127325752,6,0,3,0,4,3,6,17,33,0,2,1,0,1,1,0,1,0,0,0,0.5454545454545454
"B-1584","4h-3,1-benzoxazin-4-one, 2-phenyl",-4.6084,"O=c1oc(-c2ccccc2)nc2ccccc12","O=C1OC(c2ccccc2)=Nc2ccccc21",19.29225744560384,"O=c1oc(c2ccccc2)nc2ccccc12",2.9353000000000007,38.66,223.063328528,3,0,1,0,3,0,3,17,26,0,3,2,0,1,0,0,1,2,0,0,0
"B-1586","phosphonic diamide, p-(5-amino-3-phenyl-1h-1,2,4",-3.0709,"CN(C)P(=O)(N(C)C)n1nc(-c2ccccc2)nc1N","CN(C)P(=O)(N(C)C)n1nc(-c2ccccc2)nc1N",3.7674131639581376,"CN(C)P(=O)(N(C)C)n1nc(c2ccccc2)nc1N",1.6066999999999998,80.28,294.13579585800005,7,2,4,1,5,0,8,20,39,0,2,2,0,0,1,0,0,1,0,0,0.3333333333333333
"B-1587","glycine, n-(2,4,6-trinitrophenyl)-",-2.3922,"O=C([O-])CNc1c([N+](=O)[O-])cc([N+](=O)[O-])cc1[N+](=O)[O-]","O=C([O-])CNc1c([N+](=O)[O-])cc([N+](=O)[O-])cc1[N+](=O)[O-]",98.21596680349346,"O=C([O-])CNc1c([N+](=O)[O-])cc([N+](=O)[O-])cc1[N+](=O)[O-]",-0.42700000000000005,181.57999999999998,285.01128669991,12,1,6,1,9,0,12,20,25,0,1,1,0,0,0,0,0,1,0,0,0.125
"B-1588","octyl gallate",-3.8945,"CCCCCCCCOC(=O)c1cc(O)c(O)c(O)c1","CCCCCCCCOC(=O)c1cc(O)c(O)c(O)c1",9.69357886953548,"CCCCCCCCOC(=O)c1cc(O)c(O)c(O)c1",3.320700000000003,86.99000000000001,282.14672380400003,5,3,8,3,5,0,5,20,42,0,1,1,0,0,0,0,0,1,0,0,0.5333333333333333
"B-1591","glyphosphate",-1.2069,"O=C([O-])C[NH2+]CP(=O)([O-])[O-]","O=C([O-])C[NH2+]CP(=O)([O-])[O-]",-20.310424437087043,"O=C([O-])C[NH2+]CP(=O)([O-])[O-]",-4.829099999999999,119.93,166.99945608182,6,2,4,1,5,0,7,10,16,0,0,0,0,0,0,0,0,0,0,0,0.6666666666666666
"B-1594","1h-pyrazol-4-ol, 1-phenyl-",-1.9616,"Oc1cnn(-c2ccccc2)c1","Oc1cnn(-c2ccccc2)c1",21.21187512858894,"Oc1cnn(c2ccccc2)c1",1.5778999999999999,38.050000000000004,160.063662876,3,1,1,1,3,0,3,12,20,0,2,2,0,0,1,0,0,1,0,0,0
"B-1595","1-phenylheptane",-5.5959,"CCCCCCCc1ccccc1","CCCCCCCc1ccccc1",13.781616188343088,"CCCCCCCc1ccccc1",4.199500000000003,0,176.15650064,0,0,6,0,0,0,0,13,33,0,1,1,0,0,0,0,0,1,0,0,0.5384615384615384
"B-1596","hexyl p-hydroxybenzoate",-3.949,"CCCCCCOC(=O)c1ccc(O)cc1","CCCCCCOC(=O)c1ccc(O)cc1",8.523575844105908,"CCCCCCOC(=O)c1ccc(O)cc1",3.1293000000000015,46.53,222.125594436,3,1,6,1,3,0,3,16,34,0,1,1,0,0,0,0,0,1,0,0,0.46153846153846156
"B-1597","heptyl p-hydroxybenzoate",-4.0725,"CCCCCCCOC(=O)c1ccc(O)cc1","CCCCCCCOC(=O)c1ccc(O)cc1",10.024416960646626,"CCCCCCCOC(=O)c1ccc(O)cc1",3.5194000000000027,46.53,236.1412445,3,1,7,1,3,0,3,17,37,0,1,1,0,0,0,0,0,1,0,0,0.5
"B-1599","prednisolone 21-trimethylacetate",-4.5835,"CC(C)(C)C(=O)OCC(=O)C1(O)CCC2C3CCC4=CC(=O)C=CC4(C)C3C(O)CC21C","CC(C)(C)C(=O)OCC(=O)C1(O)CCC2C3CCC4=CC(=O)C=CC4(C)C3C(O)CC21C",78.22252393803734,"CC(C)(C)C(=O)OCC(=O)C1(O)CCC2C3CCC4=CC(=O)C=CC4(C)C3C(O)CC12C",3.154600000000001,100.90000000000002,444.25118887199994,6,2,3,2,6,0,6,32,68,7,4,0,3,4,0,0,0,0,3,4,0.7307692307692307
"B-1600","dimethoxon",0.6712,"CNC(=O)CSP(=O)(OC)OC","CNC(=O)CSP(=O)(OC)OC",-87.8609645670866,"CNC(=O)CSP(=O)(OC)OC",0.8664999999999998,64.63000000000001,213.022465494,5,1,5,1,5,1,7,12,24,0,0,0,0,0,0,0,0,0,0,0,0.8
"B-1602","dl-methionine, n-acetyl-",-0.3216,"CSCC[C@@H](NC(C)=O)C(=O)[O-]","CSCC[C@@H](NC(C)=O)C(=O)[O-]",18.6923164827083,"CSCC[C@@H](NC(=O)C)C(=O)[O-]",-1.0058999999999994,69.23,190.05433782391,4,1,5,1,4,1,5,12,24,1,0,0,0,0,0,0,0,0,0,0,0.7142857142857143
"B-1603","heptanoic acid, 2-amino-, (.+-.)-",-0.94,"CCCCCC([NH3+])C(=O)[O-]","CCCCCC([NH3+])C(=O)[O-]",-64.46399185542697,"CCCCCC([NH3+])C(=O)[O-]",-1.0728999999999986,67.77,145.11027872,3,3,5,1,2,0,3,10,25,1,0,0,0,0,0,0,0,0,0,0,0.8571428571428571
"B-1604","n-nitrosodiethanolamine",0.8724,"O=NN(CCO)CCO","O=NN(CCO)CCO",11.407228975240063,"O=NN(CCO)CCO",-1.0455999999999999,73.13000000000001,134.06914218,5,2,5,2,4,0,5,9,19,0,0,0,0,0,0,0,0,0,0,0,1
"B-1605","tri(n-octyl)amine",-6.8496,"CCCCCCCC[NH+](CCCCCCCC)CCCCCCCC","CCCCCCCC[NH+](CCCCCCCC)CCCCCCCC",0.7754221649158873,"CCCCCCCC[NH+](CCCCCCCC)CCCCCCCC",6.952800000000009,4.44,354.40942708409,1,1,21,1,0,0,1,25,77,0,0,0,0,0,0,0,0,0,0,0,1
"B-1606","urea, (1,1-dimethylethyl)-",-0.7306,"CC(C)(C)NC(N)=O","CC(C)(C)NC(N)=O",-13.185674818711366,"CC(C)(C)NC(=O)N",0.4532000000000002,55.12,116.094963004,3,3,0,2,1,2,3,8,20,0,0,0,0,0,0,0,0,0,0,0,0.8
"B-1608","pentanedioic acid, dimethyl ester",-0.4337,"COC(=O)CCCC(=O)OC","COC(=O)CCCC(=O)OC",-23.520864370242798,"COC(=O)CCCC(=O)OC",0.5026999999999999,52.60000000000001,160.073558864,4,0,4,0,4,0,4,11,23,0,0,0,0,0,0,0,0,0,0,0,0.7142857142857143
"B-1611","n-undecane",-7.5505,"CCCCCCCCCCC","CCCCCCCCCCC",-0.759632325297781,"CCCCCCCCCCC",4.537100000000004,0,156.187800768,0,0,8,0,0,0,0,11,35,0,0,0,0,0,0,0,0,0,0,0,1
"B-1612","2,4,5-trimethylpyridine",-0.7824,"Cc1cc(C)c(C)cn1","Cc1cc(C)c(C)cn1",17.709708286699403,"Cc1cc(C)c(C)cn1",2.00686,12.89,121.08914935199999,1,0,0,0,1,0,1,9,20,0,1,1,0,0,1,0,0,0,0,0,0.375
"B-1613","4-dimethylaminopyridine",-0.2062,"CN(C)c1cc[nH+]cc1","CN(C)c1cc[nH+]cc1",19.294871176110945,"CN(C)c1cc[nH+]cc1",0.5667,17.380000000000003,123.09167477208999,2,1,1,0,1,0,2,9,20,0,1,1,0,0,1,0,0,0,0,0,0.2857142857142857
"B-1614","pyridine, 2-ethyl-6-methyl-",-0.8234,"CCc1cccc(C)n1","CCc1cccc(C)n1",18.6400568501753,"CCc1cccc(C)n1",1.95242,12.89,121.08914935199999,1,0,1,0,1,0,1,9,20,0,1,1,0,0,1,0,0,0,0,0,0.375
"B-1615","1-hydroxy-cyclohexanecarboxylic acid",-0.3328,"O=C([O-])C1(O)CCCCC1","O=C([O-])C1(O)CCCCC1",59.559477313643285,"O=C([O-])C1(O)CCCCC1",-0.5685000000000007,60.36,143.07136779190998,3,1,1,1,3,0,3,10,21,0,1,0,1,1,0,0,0,0,1,1,0.8571428571428571
"B-1619","1,2-benzenediol, 4-(2-propenyl)-",-0.7787,"C=CCc1ccc(O)c(O)c1","C=CCc1ccc(O)c(O)c1",15.943440437910043,"C=CCc1ccc(O)c(O)c1",1.8262999999999996,40.46,150.06807956,2,2,2,2,2,0,2,11,21,0,1,1,0,0,0,0,0,1,0,0,0.1111111111111111
"B-1620","1h-pyrazol-5-amine, 3-methyl-1-phenyl-",-0.9376,"Cc1cc(N)n(-c2ccccc2)n1","Cc1cc(N)n(-c2ccccc2)n1",33.56905311944195,"Cc1cc(N)n(c2ccccc2)n1",1.7629199999999998,43.84,173.095297352,3,2,1,1,3,0,3,13,24,0,2,2,0,0,1,0,0,1,0,0,0.1
"B-1621","p-cyclohexylphenol",-3.468,"Oc1ccc(C2CCCCC2)cc1","Oc1ccc(C2CCCCC2)cc1",23.528046058506774,"Oc1ccc(C2CCCCC2)cc1",3.4399000000000015,20.23,176.120115132,1,1,1,1,1,0,1,13,29,0,2,1,1,1,0,0,0,1,1,1,0.5
"B-1622","cycloate",-3.4037,"CCSC(=O)N(CC)C1CCCCC1","CCSC(=O)N(CC)C1CCCCC1",-35.593934800447286,"CCSC(=O)N(CC)C1CCCCC1",3.5141000000000027,20.310000000000002,215.134385292,2,0,3,0,2,1,3,14,35,0,1,0,1,1,0,0,0,0,1,1,0.9090909090909091
"B-1624","1-butyl theobromine",-1.6252,"CCCCn1c(=O)c2c(ncn2C)n(C)c1=O","CCCCN1C(=O)c2c(ncn2C)N(C)C1=O",-132.02896476604565,"CCCCn1c(=O)c2c(ncn2C)n(C)c1=O",1.2322,58.440000000000005,236.127325752,6,0,3,0,4,3,6,17,33,0,2,1,0,1,1,0,1,0,0,0,0.5454545454545454
"B-1625","tolazamide",-3.6778,"Cc1ccc(S(=O)(=O)NC(=O)N[NH+]2CCCCCC2)cc1","Cc1ccc(S(=O)(=O)NC(=O)N[NH+]2CCCCCC2)cc1",-44.996715228262794,"Cc1ccc(S(=O)(=O)NC(=O)N[NH+]2CCCCCC2)cc1",0.35682000000000036,79.71,312.13763898408996,6,3,3,3,3,2,7,21,43,0,2,1,1,1,0,1,1,1,0,0,0.5
"B-1626","peruvoside",-3.1373,"COC1C(O)[C@@H](O[C@H]2CC[C@]3(C=O)C4CC[C@]5(C)[C@@H](C6=CC(=O)OC6)CC[C@]5(O)C4CC[C@@H]3C2)OC(C)[C@H]1O","COC1C(O)[C@@H](O[C@H]2CC[C@]3(C=O)C4CC[C@]5(C)[C@@H](C6=CC(=O)OC6)CC[C@]5(O)C4CC[C@@H]3C2)OC(C)[C@H]1O",113.85043966678786,"COC1C(O)[C@@H](O[C@H]2CC[C@]3(C=O)C4CC[C@]5(C)[C@@H](C6=CC(=O)OC6)CC[C@]5(O)C4CC[C@@H]3C2)OC(C)[C@H]1O",2.2891999999999997,131.75,548.2985329879999,9,3,5,3,9,0,9,39,83,13,6,0,5,6,0,1,2,0,4,4,0.8666666666666667