"ID","Name","Solubility","SMILES Canonical","Smiles (Optimized Geometry)","Energy","Smiles","SlogP","TPSA","ExactMW","NumLipinskiHBA","NumLipinskiHBD","NumRotatableBonds","NumHBD","NumHBA","NumAmideBonds","NumHeteroAtoms","NumHeavyAtoms","NumAtoms","NumStereocenters","NumRings","NumAromaticRings","NumSaturatedRings","NumAliphaticRings","NumAromaticHeterocycles","NumSaturatedHeterocycles","NumAliphaticHeterocycles","NumAromaticCarbocycles","NumSaturatedCarbocycles","NumAliphaticCarbocycles","FractionCSP3"
"A-4204","1,1'-binaphthalene-8,8'-dicarboxylic acid",-2.2334403365,"O=C([O-])c1cccc2cccc(-c3cccc4cccc(C(=O)[O-])c34)c12","O=C([O-])c1cccc2cccc(-c3cccc4cccc(C(=O)[O-])c34)c12",147.75393766052926,"O=C([O-])c1cccc2cccc(c3cccc4cccc(C(=O)[O-])c34)c12",2.3869999999999996,80.25999999999999,340.07465602381995,4,0,3,0,4,0,4,26,38,0,4,4,0,0,0,0,0,4,0,0,0
"A-4205","2-methylpropyl prop-2-enoate",-1.8067597771,"C=CC(=O)OCC(C)C","C=CC(=O)OCC(C)C",-8.207513442386805,"C=CC(=O)OCC(C)C",1.3716,26.3,128.083729624,2,0,3,0,2,0,2,9,21,0,0,0,0,0,0,0,0,0,0,0,0.5714285714285714
"A-4206","3-phenylbutanal",-1.86983286,"CC(CC=O)c1ccccc1","CC(CC=O)c1ccccc1",12.49234567414608,"CC(CC=O)c1ccccc1",2.3791,17.07,148.088815004,1,0,3,0,1,0,1,11,23,1,1,1,0,0,0,0,0,1,0,0,0.3
"A-4207","4-amino-3-methylphenol",-1.7894220529,"Cc1cc(O)ccc1N","Cc1cc(O)ccc1N",13.869089216286369,"Cc1cc(O)ccc1N",1.2828199999999998,46.25,123.068413908,2,3,0,2,2,0,2,9,18,0,1,1,0,0,0,0,0,1,0,0,0.14285714285714285
"A-4211","methyl 2-oxo-2-phenylacetate",-1.9142373478,"COC(=O)C(=O)c1ccccc1","COC(=O)C(=O)c1ccccc1",48.327242583883844,"COC(=O)C(=O)c1ccccc1",1.0423,43.370000000000005,164.047344116,3,0,2,0,3,0,3,12,20,0,1,1,0,0,0,0,0,1,0,0,0.1111111111111111
"A-4223","2-methylbenzene-1,3-diol",0.1927727267,"Cc1c(O)cccc1O","Cc1c(O)cccc1O",12.973984680606085,"Cc1c(O)cccc1O",1.4062199999999998,40.46,124.052429496,2,2,0,2,2,0,2,9,17,0,1,1,0,0,0,0,0,1,0,0,0.14285714285714285
"A-4242","A mixture of RR and RS isomers of: (2-(2-methoxy-1-methyl)ethoxy)-1-methylethyl acetate; (2-(2-methoxy-2-methyl)ethoxy)-1-methylethyl acetate; (2-(2-methoxy-2-methyl)ethoxy)-2-methylethyl acetate; (2-(2-methoxy-1-methyl)ethoxy)-2-methylethyl acetate",-0.0168484647,"CCC(OCCCOC)OC(C)=O","CCC(OCCCOC)OC(C)=O",-32.72427179099479,"CCC(OCCCOC)OC(=O)C",1.3387,44.760000000000005,190.120509056,4,0,7,0,4,0,4,13,31,1,0,0,0,0,0,0,0,0,0,0,0.8888888888888888
"A-4252","4-ethoxyaniline",-0.860835326,"CCOc1ccc(N)cc1","CCOc1ccc(N)cc1",19.592045905162383,"CCOc1ccc(N)cc1",1.6675,35.25,137.084063972,2,2,2,1,2,0,2,10,21,0,1,1,0,0,0,0,0,1,0,0,0.25
"A-4257","2-[(2-methylprop-2-enoyl)oxy]ethyl 3-oxobutanoate",-1.0636822045,"C=C(C)C(=O)OCCOC(=O)CC(C)=O","C=C(C)C(=O)OCCOC(=O)CC(C)=O",-37.89751627187098,"C=C(C)C(=O)OCCOC(=O)CC(=O)C",0.6279999999999999,69.67,214.084123548,5,0,6,0,5,0,5,15,29,0,0,0,0,0,0,0,0,0,0,0,0.5
"A-4258","1,3-dihydro-2-benzofuran-1-one",-0.8627210528,"O=C1OCc2ccccc21","O=C1OCc2ccccc21",12.829655921999969,"O=C1OCc2ccccc12",1.357,26.3,134.036779432,2,0,0,0,2,0,2,10,16,0,2,1,0,1,0,0,1,1,0,0,0.125
"A-4259","3-(5-imino-3-methyl-4,5-dihydro-1H-pyrazol-1-yl)benzene-1-sulfonic acid",-1.1387882185,"CC1=NN(c2cccc(S(=O)(=O)[O-])c2)C(=[NH2+])C1","CC1=NN(c2cccc(S(=O)(=O)[O-])c2)C(=[NH2+])C1",-1.7137275343599212,"CC1=NN(c2cccc(S(=O)(=O)[O-])c2)C(=[NH2+])C1",-0.6657000000000002,98.39,253.052112212,6,2,2,1,4,0,7,17,28,0,2,1,0,1,0,0,1,1,0,0,0.2
"A-4260","1-benzylpiperidin-4-one",-1.0169828584,"O=C1CC[NH+](Cc2ccccc2)CC1","O=C1CC[NH+](Cc2ccccc2)CC1",-13.405914779809637,"O=C1CC[NH+](Cc2ccccc2)CC1",0.43440000000000034,21.51,190.12264055209,2,1,2,1,1,0,2,14,30,0,2,1,1,1,0,1,1,1,0,0,0.4166666666666667
"A-4264","methyl (2Z)-3-aminobut-2-enoate",-0.8059235439,"COC(=O)C=C(C)[NH3+]","COC(=O)C=C(C)[NH3+]",-30.964174399491675,"COC(=O)C=C(C)[NH3+]",-0.6949000000000001,53.94,116.07060498009,3,3,1,1,2,0,3,8,18,0,0,0,0,0,0,0,0,0,0,0,0.4
"A-4271","1,1,1,3,3,3-hexafluoropropan-2-ol",0.020110333,"OC(C(F)(F)F)C(F)(F)F","OC(C(F)(F)F)C(F)(F)F",-15.303262420552015,"OC(C(F)(F)F)C(F)(F)F",1.4719,20.23,168.000984004,1,1,0,1,1,0,7,10,12,0,0,0,0,0,0,0,0,0,0,0,1
"A-4277","2-(acetyloxy)ethyl acetate",0.068474963,"CC(=O)OCCOC(C)=O","CC(=O)OCCOC(C)=O",-16.49372805382512,"CC(=O)OCCOC(=O)C",0.11260000000000003,52.6,146.0579088,4,0,3,0,4,0,4,10,20,0,0,0,0,0,0,0,0,0,0,0,0.6666666666666666
"A-4285","dibutoxyphosphinic acid",-1.0872511921,"CCCCOP(=O)([O-])OCCCC","CCCCOP(=O)([O-])OCCCC",-91.23196009322098,"CCCCOP(=O)([O-])OCCCC",2.0882,58.59,209.09481926591,4,0,8,0,4,0,5,13,31,0,0,0,0,0,0,0,0,0,0,0,1
"A-4287","2-ethoxyethyl 2-methylprop-2-enoate",-0.9674738601,"C=C(C)C(=O)OCCOCC","C=C(C)C(=O)OCCOCC",-5.554856985786621,"C=C(C)C(=O)OCCOCC",1.1422,35.53,158.094294308,3,0,5,0,3,0,3,11,25,0,0,0,0,0,0,0,0,0,0,0,0.625
"A-4296","1-(diethylamino)propan-2-ol",0.1021113643,"CC[NH+](CC)CC(C)O","CC[NH+](CC)CC(C)O",11.445911379217577,"CC[NH+](CC)CC(C)O",-0.7080999999999993,24.67,132.13829061609,2,2,4,2,1,0,2,9,27,1,0,0,0,0,0,0,0,0,0,0,1
"A-4303","1-methoxypropan-2-yl acetate",0.0830232388,"COCC(C)OC(C)=O","COCC(C)OC(C)=O",0.39328387563777056,"COCC(C)OC(=O)C",0.5844,35.53,132.078644244,3,0,3,0,3,0,3,9,21,1,0,0,0,0,0,0,0,0,0,0,0.8333333333333334
"A-4305","5,8,11,13,16,19-hexaoxatricosane",-1.3016357757,"CCCCOCCOCCOCOCCOCCOCCCC","CCCCOCCOCCOCOCCOCCOCCCC",35.510828617397806,"CCCCOCCOCCOCOCCOCCOCCCC",2.643700000000001,55.38000000000001,336.251188872,6,0,20,0,6,0,6,23,59,0,0,0,0,0,0,0,0,0,0,0,1
"A-4306","3,6-dimethyl-1,4-dioxane-2,5-dione",-0.9360258625,"CC1OC(=O)C(C)OC1=O","CC1OC(=O)C(C)OC1=O",47.44545182457515,"CC1OC(=O)C(C)OC1=O",-0.13660000000000005,52.6,144.042258736,4,0,0,0,4,0,4,10,18,2,1,0,1,1,0,1,1,0,0,0,0.6666666666666666
"A-4308","2-aminobenzamide",-0.9139223167,"NC(=O)c1ccccc1N","NC(=O)c1ccccc1N",20.313833143306645,"NC(=O)c1ccccc1N",0.3677,69.11,136.063662876,3,4,1,2,2,1,3,10,18,0,1,1,0,0,0,0,0,1,0,0,0
"A-4312","(3Z)-hex-3-en-1-ol",-0.7858548038,"CCC=CCCO","CCC=CCCO",3.17683810677986,"CCC=CCCO",1.335,20.23,100.088815004,1,1,3,1,1,0,1,7,19,0,0,0,0,0,0,0,0,0,0,0,0.6666666666666666
"A-4316","2-methoxy-3,4-dihydro-2H-pyran",-0.853333105,"COC1CCC=CO1","COC1CCC=CO1",-9.347591167425204,"COC1CCC=CO1",1.283,18.46,114.06807956,2,0,1,0,2,0,2,8,18,1,1,0,0,1,0,0,1,0,0,0,0.6666666666666666
"A-4322","Nonylphenol, ethoxylated",-0.3045102393,"CCCCCCCCCc1ccc(OCCOCCO)cc1","CCCCCCCCCc1ccc(OCCOCCO)cc1",42.64583449641454,"CCCCCCCCCc1ccc(OCCOCCO)cc1",4.367400000000004,38.69,308.23514488399996,3,1,14,1,3,0,3,22,54,0,1,1,0,0,0,0,0,1,0,0,0.6842105263157895
"A-4325","3-methyl-2-(2-oxo-1,3-diazinan-1-yl)butanoic acid",-1.1028619258,"CC(C)C(C(=O)[O-])N1CCCNC1=O","CC(C)C(C(=O)[O-])N1CCCNC1=O",1.0165987162169952,"CC(C)C(C(=O)[O-])N1CCCNC1=O",-0.8237999999999985,72.47,199.10881591991,5,1,3,1,3,2,5,14,29,1,1,0,1,1,0,1,1,0,0,0,0.7777777777777778
"A-4326","1-cyanoprop-2-en-1-yl acetate",-0.8986939452,"C=CC(C#N)OC(C)=O","C=CC(C#N)OC(C)=O",-12.94808900584141,"C=CC(C#N)OC(=O)C",0.62768,50.089999999999996,125.047678464,3,0,2,0,3,0,3,9,16,1,0,0,0,0,0,0,0,0,0,0,0.3333333333333333
"A-4329","2-methylcyclohexanol",-0.864495868,"CC1CCCCC1O","CC1CCCCC1O",13.087275230171668,"CC1CCCCC1O",1.5574,20.23,114.104465068,1,1,0,1,1,0,1,8,22,2,1,0,1,1,0,0,0,0,1,1,1
"A-4334","1-phenoxypropan-2-ol",-1.0034177306,"CC(O)COc1ccccc1","CC(O)COc1ccccc1",31.56662878806066,"CC(O)COc1ccccc1",1.4462,29.46,152.083729624,2,1,3,1,2,0,2,11,23,1,1,1,0,0,0,0,0,1,0,0,0.3333333333333333
"A-4335","2-(1-methylcarbamimidamido)acetic acid",-0.9387416733,"CN(CC(=O)[O-])C(N)=[NH2+]","CN(CC(=O)[O-])C(N)=[NH2+]",-36.99154199634225,"CN(CC(=O)[O-])C(=[NH2+])N",-4.2581,94.98,131.069476528,5,4,2,2,2,0,5,9,18,0,0,0,0,0,0,0,0,0,0,0,0.5
"A-4336","2-methylaniline",-0.8539252345,"Cc1ccccc1N","Cc1ccccc1N",12.962235670497229,"Cc1ccccc1N",1.57722,26.02,107.073499288,1,2,0,1,1,0,1,8,17,0,1,1,0,0,0,0,0,1,0,0,0.14285714285714285
"A-4337","3-[(2-ethylhexyl)oxy]propan-1-amine",-1.096509119,"CCCCC(CC)COCCC[NH3+]","CCCCC(CC)COCCC[NH3+]",-16.143141796008496,"CCCCC(CC)COCCC[NH3+]",1.8513999999999997,36.870000000000005,188.20089087208999,2,3,9,1,1,0,2,13,39,1,0,0,0,0,0,0,0,0,0,0,1
"A-4349","2-methoxyethyl prop-2-enoate",0.0439416784,"C=CC(=O)OCCOC","C=CC(=O)OCCOC",3.5445068679335616,"C=CC(=O)OCCOC",0.3619999999999999,35.53,130.06299418,3,0,4,0,3,0,3,9,19,0,0,0,0,0,0,0,0,0,0,0,0.5
"A-4356","2-hydroxy-2-phenylacetic acid",-0.0321269405,"O=C([O-])C(O)c1ccccc1","O=C([O-])C(O)c1ccccc1",79.76095289440738,"O=C([O-])C(O)c1ccccc1",-0.5301000000000007,60.36,151.04006766390998,3,1,2,1,3,0,3,11,18,1,1,1,0,0,0,0,0,1,0,0,0.125
"A-4359","5,5-dimethylimidazolidine-2,4-dione",0.0384738201,"CC1(C)NC(=O)NC1=O","CC1(C)NC(=O)NC1=O",-14.182532703108635,"CC1(C)NC(=O)NC1=O",-0.3956000000000001,58.2,128.058577496,4,2,0,2,2,3,4,9,17,0,1,0,1,1,0,1,1,0,0,0,0.6
"A-4364","phenylphosphonic acid",-1.0269230581,"O=P([O-])([O-])c1ccccc1","O=P([O-])([O-])c1ccccc1",25.970134024096097,"O=P([O-])([O-])c1ccccc1",-0.7744000000000002,63.19,155.99872780982,3,0,1,0,3,0,4,10,15,0,1,1,0,0,0,0,0,1,0,0,0
"A-4376","4-methylpentan-2-one",-0.8514795392,"CC(=O)CC(C)C","CC(=O)CC(C)C",1.6844531704325763,"CC(=O)CC(C)C",1.6215,17.07,100.088815004,1,0,2,0,1,0,1,7,19,0,0,0,0,0,0,0,0,0,0,0,0.8333333333333334
"A-4377","2-methoxyaniline",-0.9443240129,"COc1ccccc1N","COc1ccccc1N",24.34414338971842,"COc1ccccc1N",1.2773999999999999,35.25,123.068413908,2,2,1,1,2,0,2,9,18,0,1,1,0,0,0,0,0,1,0,0,0.14285714285714285
"A-4379","{2-[2-(ethenyloxy)ethoxy]ethoxy}ethene",-1.0530702077,"C=COCCOCCOC=C","C=COCCOCCOC=C",29.45873900711942,"C=COCCOCCOC=C",1.3232,27.69,158.094294308,3,0,8,0,3,0,3,11,25,0,0,0,0,0,0,0,0,0,0,0,0.5
"A-4400","1-hydroxypropan-2-yl 2-methylprop-2-enoate 2-hydroxypropyl 2-methylprop-2-enoate",-0.0449315461,"C=C(C)C(=O)OC(C)CO","C=C(C)C(=O)OC(C)CO",-10.180969232416793,"C=C(C)C(=O)OC(C)CO",0.4865,46.53,144.078644244,3,1,3,1,3,0,3,10,22,1,0,0,0,0,0,0,0,0,0,0,0.5714285714285714
"A-4401","7-methyl-3,4-dihydro-2H-1,5-benzodioxepin-3-one",-1.1141554489,"Cc1ccc2c(c1)OCC(=O)CO2","Cc1ccc2c(c1)OCC(=O)CO2",59.73685674515579,"Cc1ccc2c(c1)OCC(=O)CO2",1.3353199999999998,35.53,178.06299418,3,0,0,0,3,0,3,13,23,0,2,1,0,1,0,0,1,1,0,0,0.3
"A-4402","diethyl pyridine-2,4-dicarboxylate",-1.2184148997,"CCOC(=O)c1ccnc(C(=O)OCC)c1","CCOC(=O)c1ccnc(C(=O)OCC)c1",24.1154625776188,"CCOC(=O)c1ccnc(C(=O)OCC)c1",1.435,65.49,223.084457896,5,0,4,0,5,0,5,16,29,0,1,1,0,0,1,0,0,0,0,0,0.36363636363636365
"A-4405","2-hydroxy-2-methyl-1-phenylpropan-1-one",-1.0915320913,"CC(C)(O)C(=O)c1ccccc1","CC(C)(O)C(=O)c1ccccc1",38.156838842932586,"CC(C)(O)C(=O)c1ccccc1",1.6401999999999999,37.3,164.083729624,2,1,2,1,2,0,2,12,24,0,1,1,0,0,0,0,0,1,0,0,0.3
"A-4406","5-methyl-3a,4,7,7a-tetrahydro-2-benzofuran-1,3-dione",-1.0999943697,"CC1=CCC2C(=O)OC(=O)C2C1","CC1=CCC2C(=O)OC(=O)C2C1",-36.73008775880237,"CC1=CCC2C(=O)OC(=O)C2C1",1.0423,43.370000000000005,166.06299418,3,0,0,0,3,0,3,12,22,2,2,0,1,2,0,1,1,0,0,1,0.5555555555555556
"A-4412","N,N-diisobutylformamide",-1.082666634,"CC(C)CN(C=O)CC(C)C","CC(C)CN(C=O)CC(C)C",-23.681320293357533,"CC(C)CN(C=O)CC(C)C",1.7568,20.310000000000002,157.146664228,2,0,5,0,1,1,2,11,30,0,0,0,0,0,0,0,0,0,0,0,0.8888888888888888
"A-4414","N-(6-amino-1,3-dimethyl-2,4-dioxo-1,2,3,4-tetrahydropyrimidin-5-yl)formamide",-1.1831208546,"Cn1c(N)c(NC=O)c(=O)n(C)c1=O","CN1C(=O)C(NC=O)=C(N)N(C)C1=O",-77.18313065606867,"Cn1c(=O)c(NC=O)c(N)n(C)c1=O",-1.6159999999999997,95.74000000000001,198.07529018,7,3,2,2,4,4,7,14,24,0,1,0,0,1,0,0,1,0,0,0,0.2857142857142857
"A-4416","2-[(prop-2-en-1-yloxy)methyl]oxirane",0.049756882,"C=CCOCC1CO1","C=CCOCC1CO1",-0.7426701778742277,"C=CCOCC1CO1",0.5878,21.759999999999998,114.06807956,2,0,4,0,2,0,2,8,18,1,1,0,1,1,0,1,1,0,0,0,0.6666666666666666
"A-4423","ethyl (2-methyl-1,3-dioxolan-2-yl)acetate",-0.1448235929,"CCOC(=O)CC1(C)OCCO1","CCOC(=O)CC1(C)OCCO1",-15.524312065375046,"CCOC(=O)CC1(C)OCCO1",0.7026000000000001,44.760000000000005,174.089208928,4,0,3,0,4,0,4,12,26,0,1,0,1,1,0,1,1,0,0,0,0.875
"A-4430","1,4-dimethyl butanedioate",-0.0752231636,"COC(=O)CCC(=O)OC","COC(=O)CCC(=O)OC",-37.97194272184828,"COC(=O)CCC(=O)OC",0.11259999999999981,52.60000000000001,146.0579088,4,0,3,0,4,0,4,10,20,0,0,0,0,0,0,0,0,0,0,0,0.6666666666666666
"A-4433","1,2-bis(oxiran-2-ylmethyl) cyclohex-4-ene-1,2-dicarboxylate",-1.3401088604,"O=C(OCC1CO1)C1CC=CCC1C(=O)OCC1CO1","O=C(OCC1CO1)C1CC=CCC1C(=O)OCC1CO1",-45.50580399304913,"O=C(OCC1CO1)C1CC=CCC1C(=O)OCC1CO1",0.4528000000000001,77.66,282.110338296,6,0,6,0,6,0,6,20,38,4,3,0,2,3,0,2,2,0,0,1,0.7142857142857143
"A-4436","3,4-dihydroxybenzonitrile",-1.0235160951,"N#Cc1ccc([O-])c(O)c1","N#Cc1ccc([O-])c(O)c1",17.319848145137552,"N#Cc1ccc([O-])c(O)c1",0.33747999999999995,67.08,134.02475194791,3,1,0,1,3,0,3,10,14,0,1,1,0,0,0,0,0,1,0,0,0
"A-4437","2-[2-(2-{2-[(2-methylprop-2-enoyl)oxy]ethoxy}ethoxy)ethoxy]ethyl 2-methylprop-2-enoate",-1.4186392601,"C=C(C)C(=O)OCCOCCOCCOCCOC(=O)C(=C)C","C=C(C)C(=O)OCCOCCOCCOCCOC(=O)C(=C)C",14.316300017133289,"C=C(C)C(=O)OCCOCCOCCOCCOC(=O)C(=C)C",1.2748,80.29000000000002,330.167853172,7,0,14,0,7,0,7,23,49,0,0,0,0,0,0,0,0,0,0,0,0.625
"A-4438","4-aminobenzenesulfonic acid",-1.1412730253,"Nc1ccc(S(=O)(=O)[O-])cc1","Nc1ccc(S(=O)(=O)[O-])cc1",14.537132253170842,"Nc1ccc(S(=O)(=O)[O-])cc1",0.1729000000000001,83.22,172.00738763191,4,2,1,1,4,0,5,11,17,0,1,1,0,0,0,0,0,1,0,0,0
"A-4439","methoxycyclopentane",-0.9037886388,"COC1CCCC1","COC1CCCC1",10.693240334492332,"COC1CCCC1",1.5754000000000001,9.23,100.088815004,1,0,1,0,1,0,1,7,19,0,1,0,1,1,0,0,0,0,1,1,1
"A-4440","3,4-diaminobenzenesulfonic acid",-1.1812163945,"Nc1ccc(S(=O)(=O)[O-])cc1N","Nc1ccc(S(=O)(=O)[O-])cc1N",13.191378727883095,"Nc1ccc(S(=O)(=O)[O-])cc1N",-0.2449,109.24,187.01828666391,5,4,1,2,5,0,6,12,19,0,1,1,0,0,0,0,0,1,0,0,0
"A-4442","(E)-N-(pyridin-2-ylmethylidene)hydroxylamine",-1.0004518583,"O=NC=C1C=CC=CN1","O=NC=C1C=CC=CN1",18.85949777953221,"O=NC=c1cccc[nH]1",1.2672999999999999,41.46,122.048012812,3,1,1,1,3,0,3,9,15,0,1,0,0,1,0,0,1,0,0,0,0
"A-4444","3a,4,7,7a-tetrahydro-1H-isoindole-1,3(2H)-dione",-1.0930914177,"O=C1NC(=O)C2CC=CCC12","O=C1NC(=O)C2CC=CCC12",-24.80185955933039,"O=C1NC(=O)C2CC=CCC12",0.22519999999999984,46.17,151.063328528,3,1,0,1,2,2,3,11,20,2,2,0,1,2,0,1,1,0,0,1,0.5
"A-4445","3,5,5-trimethylcyclohex-2-en-1-one",-1.0613582209,"CC1=CC(=O)CC(C)(C)C1","CC1=CC(=O)CC(C)(C)C1",16.81898130443222,"CC1=CC(=O)CC(C)(C)C1",2.3218000000000005,17.07,138.104465068,1,0,0,0,1,0,1,10,24,0,1,0,0,1,0,0,0,0,0,1,0.6666666666666666
"A-4446","3-methylaniline",-0.9508352475,"Cc1cccc(N)c1","Cc1cccc(N)c1",13.701199621504875,"Cc1cccc(N)c1",1.5772199999999998,26.02,107.073499288,1,2,0,1,1,0,1,8,17,0,1,1,0,0,0,0,0,1,0,0,0.14285714285714285
"A-4449","1-{bis[4-(diethylamino)phenyl]methyl}naphthalene-2,7-disulfonic acid",-0.6984761494,"CCN(CC)c1ccc(C(c2ccc(N(CC)CC)cc2)c2c(S(=O)(=O)[O-])ccc3ccc(S(=O)(=O)[O-])cc23)cc1","CCN(CC)c1ccc(C(c2ccc(N(CC)CC)cc2)c2c(S(=O)(=O)[O-])ccc3ccc(S(=O)(=O)[O-])cc23)cc1",129.65062629864372,"CCN(CC)c1ccc(C(c2ccc(N(CC)CC)cc2)c2c(S(=O)(=O)[O-])ccc3ccc(S(=O)(=O)[O-])cc23)cc1",5.520600000000006,120.88,594.1869259678199,8,0,11,0,8,0,10,41,75,0,4,4,0,0,0,0,0,4,0,0,0.2903225806451613
"A-4458","benzene-1,3-diol",1.0034883278,"Oc1cccc(O)c1","Oc1cccc(O)c1",13.106728544663031,"Oc1cccc(O)c1",1.0977999999999999,40.46,110.036779432,2,2,0,2,2,0,2,8,14,0,1,1,0,0,0,0,0,1,0,0,0
"A-4461","2-[(allyloxy)methyl]-2-methylbutane-1,1-diol",-0.1997551773,"C=CCOCC(CC)(CO)CO","C=CCOCC(CC)(CO)CO",-0.7077424342236691,"C=CCOCC(CC)(CO)CO",0.5699999999999998,49.69,174.125594436,3,2,7,2,3,0,3,12,30,0,0,0,0,0,0,0,0,0,0,0,0.7777777777777778
"A-4462","2-hydroxy-4-(methylsulfanyl)butanenitrile",-0.0765411499,"CSCCC(O)C#N","CSCCC(O)C#N",3.7045110672125245,"CSCCC(O)C#N",0.62398,44.019999999999996,131.040484908,2,1,3,1,3,0,3,8,17,1,0,0,0,0,0,0,0,0,0,0,0.8
"A-4465","3,5-dimethylhex-1-yn-3-ol",-1.0365979243,"C#CC(C)(O)CC(C)C","C#CC(C)(O)CC(C)C",4.348959903592488,"C#CC(C)(O)CC(C)C",1.4167,20.23,126.104465068,1,1,2,1,1,0,1,9,23,1,0,0,0,0,0,0,0,0,0,0,0.75
"A-4466","cyclohex-3-ene-1-carbaldehyde",-0.9775501681,"O=CC1CC=CCC1","O=CC1CC=CCC1",1.2271739937437203,"O=CC1CC=CCC1",1.5415999999999999,17.07,110.07316494,1,0,1,0,1,0,1,8,18,1,1,0,0,1,0,0,0,0,0,1,0.5714285714285714
"A-4468","1,3-diazinane-2,4,6-trione",-1.0486616392,"O=C1CC(=O)NC(=O)N1","O=C1CC(=O)NC(=O)N1",-61.86661195498524,"O=C1CC(=O)NC(=O)N1",-1.2575,75.27,128.022191988,5,2,0,2,3,4,5,9,13,0,1,0,1,1,0,1,1,0,0,0,0.25
"A-4471","suberonitrile",-1.0810922867,"N#CCCCCCCC#N","N#CCCCCCCC#N",0.058120083065065664,"N#CCCCCCCC#N",2.3741600000000007,47.58,136.100048384,2,0,5,0,2,0,2,10,22,0,0,0,0,0,0,0,0,0,0,0,0.75
"A-4472","2-(4-methyl-5-oxo-4-propan-2-yl-1H-imidazol-2-yl)pyridine-3-carboxylic acid",-1.3640293861,"CC(C)C1(C)[NH+]=C(c2ncccc2C(=O)[O-])NC1=O","CC(C)C1(C)[NH+]=C(c2ncccc2C(=O)[O-])NC1=O",-67.98581144770947,"CC(C)C1(C)[NH+]=C(c2ncccc2C(=O)[O-])NC1=O",-2.1831999999999967,96.09,261.11134134,6,2,3,2,4,1,6,19,34,1,2,1,0,1,1,0,1,0,0,0,0.38461538461538464
"A-4477","2-phenyl-4,5-dihydro-1H-imidazole",-1.1265180752,"c1ccc(C2=[NH+]CCN2)cc1","c1ccc(C2=[NH+]CCN2)cc1",24.14063422652942,"c1ccc(C2=[NH+]CCN2)cc1",-0.8829999999999996,26,147.09167477209,2,2,1,2,1,0,2,11,22,0,2,1,0,1,0,0,1,1,0,0,0.2222222222222222
"A-4478","tricyclo[2.2.2.2~1,4~]decane-2,5-diyldimethanol",-1.2515054899,"OCC1CC2CC1C1CCC(CO)C21","OCC1CC2CC1C1CCC(CO)C21",41.45565183932188,"OCC1CC2CC1C1CCC(CO)C21",1.2693999999999999,40.46,196.14632988,2,2,2,2,2,0,2,14,34,6,3,0,3,3,0,0,0,0,3,3,1
"A-4479","hydroxy(phenyl)acetic acid",-0.1416667622,"O=C([O-])[C@H](O)c1ccccc1","O=C([O-])[C@H](O)c1ccccc1",79.76095288999552,"O=C([O-])[C@H](O)c1ccccc1",-0.5301000000000007,60.36,151.04006766390998,3,1,2,1,3,0,3,11,18,1,1,1,0,0,0,0,0,1,0,0,0.125
"A-4480","Alpha-Methylglucoside",0.7452125491,"COC1OC(CO)C(O)C(O)C1O","COC1OC(CO)C(O)C(O)C1O",37.47437541309002,"COC1OC(CO)C(O)C(O)C1O",-2.5673,99.38000000000001,194.079038168,6,4,2,4,6,0,6,13,27,5,1,0,1,1,0,1,1,0,0,0,1
"A-4486","1-ethenylsulfanylethanol",0.0054931194,"C=CSC(C)O","C=CSC(C)O",-1.964354682158697,"C=CSC(C)O",1.2013999999999998,20.23,104.029585876,1,1,2,1,2,0,2,6,14,1,0,0,0,0,0,0,0,0,0,0,0.5
"A-4493","hexanedihydrazide",-0.2324579511,"NNC(=O)CCCCC(=O)NN","NNC(=O)CCCCC(=O)NN",8.542291888170093,"NNC(=O)CCCCC(=O)NN",-1.473399999999999,110.24,174.111675688,6,6,5,4,4,2,6,12,26,0,0,0,0,0,0,0,0,0,0,0,0.6666666666666666
"A-4500","2,2'-sulfanediyldiethanol",0.9129678895,"OCCSCCO","OCCSCCO",15.479324524531513,"OCCSCCO",-0.2958,40.46,122.04015056,2,2,4,2,3,0,3,7,17,0,0,0,0,0,0,0,0,0,0,0,1
"A-4503","2-(2-hydroxyethoxy)ethan-1-ol",0.9741986662,"OCCOCCO","OCCOCCO",20.969080500645628,"OCCOCCO",-1.0124,49.69,106.06299418,3,2,4,2,3,0,3,7,17,0,0,0,0,0,0,0,0,0,0,0,1
"A-4504","2-(2-oxoimidazolidin-1-yl)ethyl methacrylate",0.7028481463,"C=C(C)C(=O)OCCN1CCNC1=O","C=C(C)C(=O)OCCN1CCNC1=O",-43.14282232978176,"C=C(C)C(=O)OCCN1CCNC1=O",0.13090000000000007,58.64,198.100442308,5,1,4,1,3,2,5,14,28,0,1,0,1,1,0,1,1,0,0,0,0.5555555555555556
"A-4507","2-[(2-aminoethyl)amino]ethan-1-ol",0.9823282162,"NCC[NH2+]CCO","NCC[NH2+]CCO",-4.788193999147823,"NCC[NH2+]CCO",-2.4991999999999988,62.86,105.10223945608999,3,5,4,3,2,0,3,7,20,0,0,0,0,0,0,0,0,0,0,0,1
"A-4508","2-[(2-hydroxyethyl)(methyl)amino]ethan-1-ol",0.9238549272,"C[NH+](CCO)CCO","C[NH+](CCO)CCO",16.22261498192273,"C[NH+](CCO)CCO",-2.514299999999998,44.900000000000006,120.10190510809,3,3,4,3,2,0,3,8,22,0,0,0,0,0,0,0,0,0,0,0,1
"A-4509","2-[2-(2-hydroxyethoxy)ethoxy]ethan-1-ol",0.8234052513,"OCCOCCOCCO","OCCOCCOCCO",35.12359944985384,"OCCOCCOCCO",-0.9958000000000002,58.92,150.089208928,4,2,7,2,4,0,4,10,24,0,0,0,0,0,0,0,0,0,0,0,1
"A-4510","2-[bis(2-hydroxyethyl)amino]ethan-1-ol",0.826260286,"OCC[NH+](CCO)CCO","OCC[NH+](CCO)CCO",24.38005237102872,"OCC[NH+](CCO)CCO",-3.1517999999999975,65.13000000000001,150.11246979209,4,4,6,4,3,0,4,10,26,0,0,0,0,0,0,0,0,0,0,0,1
"A-4513","2-hydroxyethyl prop-2-enoate",0.9351079333,"C=CC(=O)OCCO","C=CC(=O)OCCO",-4.031695348276461,"C=CC(=O)OCCO",-0.2921000000000001,46.53,116.047344116,3,1,3,1,3,0,3,8,16,0,0,0,0,0,0,0,0,0,0,0,0.4