"ID","Name","Solubility","SMILES Canonical","Smiles (Optimized Geometry)","Energy","Smiles","SlogP","TPSA","ExactMW","NumLipinskiHBA","NumLipinskiHBD","NumRotatableBonds","NumHBD","NumHBA","NumAmideBonds","NumHeteroAtoms","NumHeavyAtoms","NumAtoms","NumStereocenters","NumRings","NumAromaticRings","NumSaturatedRings","NumAliphaticRings","NumAromaticHeterocycles","NumSaturatedHeterocycles","NumAliphaticHeterocycles","NumAromaticCarbocycles","NumSaturatedCarbocycles","NumAliphaticCarbocycles","FractionCSP3"
"B-1185","1-monobutyrin",-1.335,"CCCC(=O)OCC(O)CO","CCCC(=O)OCC(O)CO",1.4233802864948588,"CCCC(=O)OCC(O)CO",-0.3170999999999998,66.76,162.089208928,4,2,5,2,4,0,4,11,25,1,0,0,0,0,0,0,0,0,0,0,0.8571428571428571
"B-1194","heroin",-2.7894,"CC(=O)Oc1ccc2c3c1O[C@H]1[C@@H](OC(C)=O)C=C[C@H]4[C@@H](C2)[NH+](C)CC[C@]314","CC(=O)Oc1ccc2c3c1O[C@H]1[C@@H](OC(C)=O)C=C[C@H]4[C@@H](C2)[NH+](C)CC[C@]314",61.731587286408,"CC(=O)Oc1ccc2c3c1O[C@H]1[C@@H](OC(=O)C)C=C[C@H]4[C@@H](C2)[NH+](C)CC[C@]314",0.5715000000000003,66.27000000000001,370.16489928809006,6,1,2,1,5,0,6,27,51,6,5,1,1,4,0,1,2,1,0,2,0.5238095238095238
"B-1195","3,3-dimethylpentane",-4.2286,"CCC(C)(C)CC","CCC(C)(C)CC",7.216244874678777,"CCC(C)(C)CC",2.832600000000001,0,100.12520051199999,0,0,2,0,0,0,0,7,23,0,0,0,0,0,0,0,0,0,0,0,1
"B-1196","ethion",-5.2838,"CCOP(=S)(OCC)SCSP(=S)(OCC)OCC","CCOP(=S)(OCC)SCSP(=S)(OCC)OCC",-181.2707692286006,"CCOP(=S)(OCC)SCSP(=S)(OCC)OCC",5.005300000000004,36.92,383.9876164439999,4,0,12,0,8,0,10,19,41,0,0,0,0,0,0,0,0,0,0,0,1
"B-1203","2,2,3-trimethylpentane",-4.6776,"CCC(C)C(C)(C)C","CCC(C)C(C)(C)C",9.886918353017744,"CCC(C)C(C)(C)C",3.0786000000000016,0,114.14085057599999,0,0,1,0,0,0,0,8,26,1,0,0,0,0,0,0,0,0,0,0,1
"B-1205","2,3-dimethylpentane",-4.2808,"CCC(C)C(C)C","CCC(C)C(C)C",7.973248096709517,"CCC(C)C(C)C",2.6885000000000012,0,100.12520051199999,0,0,2,0,0,0,0,7,23,1,0,0,0,0,0,0,0,0,0,0,1
"B-1206","3-methyl-2-pentanol",-0.7216,"CCC(C)C(C)O","CCC(C)C(C)O",8.179237496703822,"CCC(C)C(C)O",1.4133,20.23,102.104465068,1,1,2,1,1,0,1,7,21,2,0,0,0,0,0,0,0,0,0,0,1
"B-1207","3-methylpentan-2-one",-0.6805,"CCC(C)C(C)=O","CCC(C)C(C)=O",6.713030404894319,"CCC(C)C(=O)C",1.6215,17.07,100.088815004,1,0,2,0,1,0,1,7,19,1,0,0,0,0,0,0,0,0,0,0,0.8333333333333334
"B-1208","2-methyl-3-pentanol",-0.7062,"CCC(O)C(C)C","CCC(O)C(C)C",6.214954337495447,"CCC(O)C(C)C",1.4133,20.23,102.104465068,1,1,2,1,1,0,1,7,21,1,0,0,0,0,0,0,0,0,0,0,1
"B-1209","2-methyl-3-pentanone",-0.8106,"CCC(=O)C(C)C","CCC(=O)C(C)C",5.61789809139252,"CCC(=O)C(C)C",1.6215,17.07,100.088815004,1,0,2,0,1,0,1,7,19,0,0,0,0,0,0,0,0,0,0,0,0.8333333333333334
"B-1210","propanoic acid, 3-amino-2-hydroxy-",-0.8229,"[NH3+]CC(O)C(=O)[O-]","[NH3+]CC(O)C(=O)[O-]",-90.57078480612452,"[NH3+]CC(O)C(=O)[O-]",-3.6608999999999994,88,105.042593084,4,4,2,2,3,0,4,7,14,1,0,0,0,0,0,0,0,0,0,0,0.6666666666666666
"B-1212","2,3,4-trimethylpentane",-4.6961,"CC(C)C(C)C(C)C","CC(C)C(C)C(C)C",9.344133357976215,"CC(C)C(C)C(C)C",2.9345000000000017,0,114.14085057599999,0,0,2,0,0,0,0,8,26,0,0,0,0,0,0,0,0,0,0,0,1
"B-1213","2,4-dimethyl-3-pentanone",-1.3018,"CC(C)C(=O)C(C)C","CC(C)C(=O)C(C)C",9.052437705530727,"CC(C)C(=O)C(C)C",1.8675,17.07,114.104465068,1,0,2,0,1,0,1,8,22,0,0,0,0,0,0,0,0,0,0,0,0.8571428571428571
"B-1214","butanoic acid, 3-amino-2-hydroxy-",-0.3535,"CC([NH3+])C(O)C(=O)[O-]","CC([NH3+])C(O)C(=O)[O-]",-89.44270366312743,"CC([NH3+])C(O)C(=O)[O-]",-3.272399999999999,88,119.058243148,4,4,2,2,3,0,4,8,17,2,0,0,0,0,0,0,0,0,0,0,0.75
"B-1215","alpha-peltatin",-4.1254,"COc1cc([C@@H]2c3cc4c(c(O)c3C[C@H]3COC(=O)[C@@H]32)OCO4)cc(OC)c1O","COc1cc([C@@H]2c3cc4c(c(O)c3C[C@H]3COC(=O)[C@@H]32)OCO4)cc(OC)c1O",53.625510677855736,"COc1cc([C@@H]2c3cc4c(c(O)c3C[C@H]3COC(=O)[C@H]23)OCO4)cc(OC)c1O",2.3209000000000004,103.68,400.1158175999999,8,2,3,2,8,0,8,29,49,3,5,2,1,3,0,1,2,2,0,1,0.38095238095238093
"B-1216","meconin",-1.8903,"COc1ccc2c(c1OC)C(=O)OC2","COc1ccc2c(c1OC)C(=O)OC2",37.400662481730905,"COc1ccc2c(c1OC)C(=O)OC2",1.3741999999999999,44.760000000000005,194.0579088,4,0,2,0,4,0,4,14,24,0,2,1,0,1,0,0,1,1,0,0,0.3
"B-1217","1h-imidazole-4,5-dicarboxylic acid",-2.4944,"O=C([O-])c1nc[nH]c1C(=O)[O-]","O=C([O-])c1nc[nH]c1C(=O)[O-]",100.13185082008044,"O=C([O-])c1nc[nH]c1C(=O)[O-]",-2.8633000000000006,108.94,154.00255370382,6,1,2,1,5,0,6,11,13,0,1,1,0,0,1,0,0,0,0,0,0
"B-1218","inositol monophosphate",0.1076,"O=P([O-])([O-])OC1C(O)C(O)C(O)C(O)C1O","O=P([O-])([O-])OC1C(O)C(O)C(O)C(O)C1O",-66.02040221935763,"O=P([O-])([O-])OC1C(O)C(O)C(O)C(O)C1O",-4.981599999999996,173.57,258.01516572182004,9,5,2,5,9,0,10,16,27,4,1,0,1,1,0,0,0,0,1,1,1
"B-1219","benzoic acid, 2-hydroxy-, methoxymethyl ester",-2.3,"COCOC(=O)c1ccccc1O","COCOC(=O)c1ccccc1O",-11.23101651364441,"COCOC(=O)c1ccccc1O",1.1529,55.760000000000005,182.0579088,4,1,3,1,4,0,4,13,23,0,1,1,0,0,0,0,0,1,0,0,0.2222222222222222
"B-1221","3,4-piperidinedicarboxylic acid",-0.5395,"O=C([O-])C1CC[NH2+]CC1C(=O)[O-]","O=C([O-])C1CC[NH2+]CC1C(=O)[O-]",-135.1507653656697,"O=C([O-])C1CC[NH2+]CC1C(=O)[O-]",-4.314299999999998,96.87,172.06153137991,5,2,2,1,4,0,5,12,22,2,1,0,1,1,0,1,1,0,0,0,0.7142857142857143
"B-1222","1-aminoacridine",-4.222,"Nc1cccc2nc3ccccc3cc12","Nc1cccc2nc3ccccc3cc12",40.81490773540186,"Nc1cccc2nc3ccccc3cc12",2.970200000000001,38.91,194.08439832,2,2,0,1,2,0,2,15,25,0,3,3,0,0,1,0,0,2,0,0,0
"B-1223","meso-hydrobenzoin",-1.933,"OC(c1ccccc1)C(O)c1ccccc1","OC(c1ccccc1)C(O)c1ccccc1",49.05541200649687,"OC(c1ccccc1)C(O)c1ccccc1",2.4536,40.46,214.099379688,2,2,3,2,2,0,2,16,30,2,2,2,0,0,0,0,0,2,0,0,0.14285714285714285
"B-1225","2,6-diethylaniline",-2.3478,"CCc1cccc(CC)c1N","CCc1cccc(CC)c1N",14.607713720898685,"CCc1cccc(CC)c1N",2.3936,26.02,149.12044948,1,2,2,1,1,0,1,11,26,0,1,1,0,0,0,0,0,1,0,0,0.4
"B-1227","3-quinolinol",-2.3925,"Oc1cnc2ccccc2c1","Oc1cnc2ccccc2c1",31.04434847828371,"Oc1cnc2ccccc2c1",1.9403999999999997,33.120000000000005,145.052763844,2,1,0,1,2,0,2,11,18,0,2,2,0,0,1,0,0,1,0,0,0
"B-1228","7-quinolinol",-2.5038,"Oc1ccc2cccnc2c1","Oc1ccc2cccnc2c1",25.862014364200203,"Oc1ccc2cccnc2c1",1.9403999999999997,33.120000000000005,145.052763844,2,1,0,1,2,0,2,11,18,0,2,2,0,0,1,0,0,1,0,0,0
"B-1230","anatabine",0.7953,"C1=CC[C@@H](c2cccnc2)[NH2+]C1","C1=CC[C@@H](c2cccnc2)[NH2+]C1",3.4790222601021714,"C1=CC[C@@H](c2cccnc2)[NH2+]C1",0.6459999999999998,29.5,161.10732483609,2,2,1,1,1,0,2,12,25,1,2,1,0,1,1,0,1,0,0,0,0.3
"B-1231","2,3'-bipyridine",-0.5916,"c1ccc(-c2cccnc2)nc1","c1ccc(-c2cccnc2)nc1",27.98216793914697,"c1ccc(c2cccnc2)nc1",2.1435999999999993,25.78,156.068748256,2,0,1,0,2,0,2,12,20,0,2,2,0,0,2,0,0,0,0,0,0
"B-1232","8h-purine-8-thione, 1,7-dihydro-",-2.5243,"S=c1[nH]c2cncnc2[nH]1","S=C1Nc2cncnc2N1",-16.791320433138637,"S=c1[nH]c2cncnc2[nH]1",0.5988999999999998,49.84,152.015667128,4,2,0,2,3,0,5,10,14,0,2,1,0,1,1,0,1,0,0,0,0
"B-1236","allethrin",-4.8179,"C=CCC1=C(C)C(OC(=O)C2C(C=C(C)C)C2(C)C)CC1=O","C=CCC1=C(C)C(OC(=O)C2C(C=C(C)C)C2(C)C)CC1=O",-11.835019554172712,"C=CCC1=C(C)C(OC(=O)C2C(C=C(C)C)C2(C)C)CC1=O",4.002000000000003,43.370000000000005,302.18819469199997,3,0,5,0,3,0,3,22,48,3,2,0,1,2,0,0,0,0,1,2,0.5789473684210527
"B-1237","alanine, n-(aminocarbonyl)-",-0.7845,"C[C@H](NC(N)=O)C(=O)[O-]","C[C@H](NC(N)=O)C(=O)[O-]",27.55116067148945,"C[C@H](NC(=O)N)C(=O)[O-]",-2.206899999999999,95.25,131.04621566391,5,3,2,2,3,2,5,9,16,1,0,0,0,0,0,0,0,0,0,0,0.5
"B-1238","phenol, 3-(1,1-dimethylethyl)-",-1.8614,"CC(C)(C)c1cccc(O)c1","CC(C)(C)c1cccc(O)c1",20.619886709692107,"CC(C)(C)c1cccc(O)c1",2.689700000000001,20.23,150.104465068,1,1,0,1,1,0,1,11,25,0,1,1,0,0,0,0,0,1,0,0,0.4
"B-1240","1-propene-1,2,3-tricarboxylic acid, (z)-",0.3612,"O=C([O-])C=C(CC(=O)[O-])C(=O)[O-]","O=C([O-])C=C(CC(=O)[O-])C(=O)[O-]",220.57506551524747,"O=C([O-])C=C(CC(=O)[O-])C(=O)[O-]",-4.447399999999999,120.38999999999999,170.99460855573003,6,0,4,0,6,0,6,12,15,0,0,0,0,0,0,0,0,0,0,0,0.16666666666666666
"B-1241","lactitol",0.2872,"OCC(O)C(O)C(OC1OC(CO)C(O)C(O)C1O)C(O)CO","OCC(O)C(O)C(OC1OC(CO)C(O)C(O)C1O)C(O)CO",79.62692976484365,"OCC(O)C(O)C(OC1OC(CO)C(O)C(O)C1O)C(O)CO",-5.761199999999992,200.52999999999997,344.13186158799994,11,9,8,9,11,0,11,23,47,9,1,0,1,1,0,1,1,0,0,0,1
"B-1242","melibiose",0.4656,"OCC1OC(OCC2OC(O)C(O)C(O)C2O)C(O)C(O)C1O","OCC1OC(OCC2OC(O)C(O)C(O)C2O)C(O)C(O)C1O",93.49157716844232,"OCC1OC(OCC2OC(O)C(O)C(O)C2O)C(O)C(O)C1O",-5.397199999999993,189.52999999999997,342.11621152399994,11,8,4,8,11,0,11,23,45,10,2,0,2,2,0,2,2,0,0,0,1
"B-1243","3,5-dinitrophenol",-1.663,"O=[N+]([O-])c1cc(O)cc([N+](=O)[O-])c1","O=[N+]([O-])c1cc(O)cc([N+](=O)[O-])c1",22.49411050250599,"O=[N+]([O-])c1cc(O)cc([N+](=O)[O-])c1",1.2086,106.51000000000002,184.012021228,7,1,2,1,5,0,7,13,17,0,1,1,0,0,0,0,0,1,0,0,0
"B-1246","4-pyridinemethanol",0.9621,"OCc1ccncc1","OCc1ccncc1",17.3260364368279,"OCc1ccncc1",0.5739,33.120000000000005,109.052763844,2,1,1,1,2,0,2,8,15,0,1,1,0,0,1,0,0,0,0,0,0.16666666666666666
"B-1248","m-methylbenzyl alcohol",-0.388,"Cc1cccc(CO)c1","Cc1cccc(CO)c1",12.623999693023972,"Cc1cccc(CO)c1",1.48732,20.23,122.07316494,1,1,1,1,1,0,1,9,19,0,1,1,0,0,0,0,0,1,0,0,0.25
"B-1251","stilbene",-5.7905,"C(=Cc1ccccc1)c1ccccc1","C(=Cc1ccccc1)c1ccccc1",32.21773709271428,"C(=Cc1ccccc1)c1ccccc1",3.857000000000003,0,180.093900384,0,0,2,0,0,0,0,14,26,0,2,2,0,0,0,0,0,2,0,0,0
"B-1252","1,4-benzenedimethanol",-0.3861,"OCc1ccc(CO)cc1","OCc1ccc(CO)cc1",13.600678099265853,"OCc1ccc(CO)cc1",0.6712,40.46,138.06807956,2,2,2,2,2,0,2,10,20,0,1,1,0,0,0,0,0,1,0,0,0.25
"B-1253","3-methylhexane",-4.3063,"CCCC(C)CC","CCCC(C)CC",2.5258587826163468,"CCCC(C)CC",2.832600000000001,0,100.12520051199999,0,0,3,0,0,0,0,7,23,1,0,0,0,0,0,0,0,0,0,0,1
"B-1255","3-hexanone",-0.8334,"CCCC(=O)CC","CCCC(=O)CC",3.2527879475279877,"CCCC(=O)CC",1.7656,17.07,100.088815004,1,0,3,0,1,0,1,7,19,0,0,0,0,0,0,0,0,0,0,0,0.8333333333333334
"B-1256","3-methylheptane",-5.1591,"CCCCC(C)CC","CCCCC(C)CC",4.121862270969706,"CCCCC(C)CC",3.2227000000000023,0,114.14085057599999,0,0,4,0,0,0,0,8,26,1,0,0,0,0,0,0,0,0,0,0,1
"B-1258","1,4-dimethylcyclohexane",-4.4657,"CC1CCC(C)CC1","CC1CCC(C)CC1",12.370297075995573,"CC1CCC(C)CC1",2.832600000000001,0,112.12520051199999,0,0,0,0,0,0,0,8,24,0,1,0,1,1,0,0,0,0,1,1,1
"B-1259","n-butyl propionate",-1.9385,"CCCCOC(=O)CC","CCCCOC(=O)CC",-10.982527656295225,"CCCCOC(=O)CC",1.7397,26.3,130.099379688,2,0,4,0,2,0,2,9,23,0,0,0,0,0,0,0,0,0,0,0,0.8571428571428571
"B-1263","2,2-dimethylpentane",-4.3575,"CCCC(C)(C)C","CCCC(C)(C)C",3.0050747630187953,"CCCC(C)(C)C",2.832600000000001,0,100.12520051199999,0,0,1,0,0,0,0,7,23,0,0,0,0,0,0,0,0,0,0,0,1
"B-1264","2-methyl-2-pentanol",-0.4988,"CCCC(C)(C)O","CCCC(C)(C)O",2.9088230693134887,"CCCC(C)(C)O",1.5574,20.23,102.104465068,1,1,2,1,1,0,1,7,21,0,0,0,0,0,0,0,0,0,0,0,1
"B-1266","2,2-dimethylhexane",-5.7568,"CCCCC(C)(C)C","CCCCC(C)(C)C",2.873321168605767,"CCCCC(C)(C)C",3.2227000000000023,0,114.14085057599999,0,0,2,0,0,0,0,8,26,0,0,0,0,0,0,0,0,0,0,0,1
"B-1269","3-methylcyclohexanone",-1.8738,"CC1CCCC(=O)C1","CC1CCCC(=O)C1",8.730960449985812,"CC1CCCC(=O)C1",1.7656,17.07,112.088815004,1,0,0,0,1,0,1,8,20,1,1,0,1,1,0,0,0,0,1,1,0.8571428571428571
"B-1271","2-methylhexane",-4.5961,"CCCCC(C)C","CCCCC(C)C",2.8565786759835925,"CCCCC(C)C",2.832600000000001,0,100.12520051199999,0,0,3,0,0,0,0,7,23,0,0,0,0,0,0,0,0,0,0,0,1
"B-1272","allyl acetate",-0.5534,"C=CCOC(C)=O","C=CCOC(C)=O",-19.45699277679939,"C=CCOC(=O)C",0.7355,26.3,100.052429496,2,0,2,0,2,0,2,7,15,0,0,0,0,0,0,0,0,0,0,0,0.4
"B-1275","n-butylformate",-1.1307,"CCCCOC=O","CCCCOC=O",-12.763708983324815,"CCCCOC=O",0.9595,26.3,102.06807956,2,0,4,0,2,0,2,7,17,0,0,0,0,0,0,0,0,0,0,0,0.8
"B-1284","2,3-dimethyl-3-pentanol",-0.8504,"CCC(C)(O)C(C)C","CCC(C)(O)C(C)C",10.056184091097526,"CCC(C)(O)C(C)C",1.8034,20.23,116.120115132,1,1,2,1,1,0,1,8,24,1,0,0,0,0,0,0,0,0,0,0,1
"B-1286","2-ethyl-2-nitro-1,3-propanediol",0.8264,"CCC(CO)(CO)[N+](=O)[O-]","CCC(CO)(CO)[N+](=O)[O-]",-20.712717415983214,"CCC(CO)(CO)[N+](=O)[O-]",-0.6034999999999999,83.6,149.068807832,5,2,4,2,4,0,5,10,21,0,0,0,0,0,0,0,0,0,0,0,1
"B-1287","3-hydroxy-2,2-dimethylpropanal",-0.3279,"CC(C)(C=O)CO","CC(C)(C=O)CO",-6.09751175984214,"CC(C)(C=O)CO",0.20380000000000004,37.3,102.06807956,2,1,2,1,2,0,2,7,17,0,0,0,0,0,0,0,0,0,0,0,0.8
"B-1290","1,3-propanediol, 2,2-bis (acetyloxy)methyl -, di",-1.5686,"CC(=O)OCC(COC(C)=O)(COC(C)=O)COC(C)=O","CC(=O)OCC(COC(C)=O)(COC(C)=O)COC(C)=O",-54.52118865410473,"CC(=O)OCC(COC(=O)C)(COC(=O)C)COC(=O)C",0.2251999999999994,105.20000000000002,304.11581759999996,8,0,8,0,8,0,8,21,41,0,0,0,0,0,0,0,0,0,0,0,0.6923076923076923
"B-1292","4-heptanol, 4-methyl-",-1.5867,"CCCC(C)(O)CCC","CCCC(C)(O)CCC",5.792410670054028,"CCCC(C)(O)CCC",2.3376,20.23,130.135765196,1,1,4,1,1,0,1,9,27,0,0,0,0,0,0,0,0,0,0,0,1
"B-1303","benzenesulfonic acid, 4-methyl-, 2-methylphenyl",-3.9417,"Cc1ccc(S(=O)(=O)Oc2ccccc2C)cc1","Cc1ccc(S(=O)(=O)Oc2ccccc2C)cc1",23.744090510525698,"Cc1ccc(S(=O)(=O)Oc2ccccc2C)cc1",3.0711400000000015,43.370000000000005,262.066365308,3,0,3,0,3,0,4,18,32,0,2,2,0,0,0,0,0,2,0,0,0.14285714285714285
"B-1306","2,4-dimethyl-3-pentanol",-1.2201,"CC(C)C(O)C(C)C","CC(C)C(O)C(C)C",9.648141424355314,"CC(C)C(O)C(C)C",1.6593,20.23,116.120115132,1,1,2,1,1,0,1,8,24,0,0,0,0,0,0,0,0,0,0,0,1
"B-1307","ethylmalonic acid",0.7315,"CCC(C(=O)[O-])C(=O)[O-]","CCC(C(=O)[O-])C(=O)[O-]",42.66385947242308,"CCC(C(=O)[O-])C(=O)[O-]",-2.4875999999999987,80.25999999999999,130.02770583182001,4,0,3,0,4,0,4,9,15,0,0,0,0,0,0,0,0,0,0,0,0.6
"B-1308","acenaphthylene, 1,2-dihydro-5-nitro-",-5.3403,"O=[N+]([O-])c1ccc2c3c(cccc13)CC2","O=[N+]([O-])c1ccc2c3c(cccc13)CC2",49.893107917647896,"O=[N+]([O-])c1ccc2c3c(cccc13)CC2",2.8466000000000005,43.14,199.063328528,3,0,1,0,2,0,3,15,24,0,3,2,0,1,0,0,0,2,0,1,0.16666666666666666
"B-1310","3-methyl-2,4,6-trinitrophenol",-2.0434,"Cc1c([N+](=O)[O-])cc([N+](=O)[O-])c([O-])c1[N+](=O)[O-]","Cc1c([N+](=O)[O-])cc([N+](=O)[O-])c([O-])c1[N+](=O)[O-]",117.72593784751953,"Cc1c([N+](=O)[O-])cc([N+](=O)[O-])c([O-])c1[N+](=O)[O-]",0.7932199999999997,152.48000000000002,242.00547304791002,10,0,3,0,7,0,10,17,21,0,1,1,0,0,0,0,0,1,0,0,0.14285714285714285
"B-1311","proxyphylline",0.623,"CC(O)Cn1cnc2c1c(=O)n(C)c(=O)n2C","CC(O)Cn1cnc2c1C(=O)N(C)C(=O)N2C",-133.5916734578629,"CC(O)Cn1cnc2c1c(=O)n(C)c(=O)n2C",-0.09429999999999983,78.67,238.106590308,7,1,2,1,5,3,7,17,31,1,2,1,0,1,1,0,1,0,0,0,0.5
"B-1312","3-nitrophthalic acid",-1.0214,"O=C([O-])c1cccc([N+](=O)[O-])c1C(=O)[O-]","O=C([O-])c1cccc([N+](=O)[O-])c1C(=O)[O-]",86.24881154151294,"O=C([O-])c1cccc([N+](=O)[O-])c1C(=O)[O-]",-1.6782000000000001,123.4,208.99713397582002,7,0,3,0,6,0,7,15,18,0,1,1,0,0,0,0,0,1,0,0,0
"B-1313","rosolic acid",-2.3837,"O=C1C=CC(=C(c2ccc(O)cc2)c2ccc(O)cc2)C=C1","O=C1C=CC(=C(c2ccc(O)cc2)c2ccc(O)cc2)C=C1",66.15021527876054,"O=C1C=CC(=C(c2ccc(O)cc2)c2ccc(O)cc2)C=C1",3.594800000000001,57.53,290.094294308,3,2,2,2,3,0,3,22,36,0,3,2,0,1,0,0,0,2,0,1,0
"B-1314","benzoic acid, 2-benzoyl-, ethyl ester",-3.4053,"CCOC(=O)c1ccccc1C(=O)c1ccccc1","CCOC(=O)c1ccccc1C(=O)c1ccccc1",26.39243480149767,"CCOC(=O)c1ccccc1C(=O)c1ccccc1",3.0943000000000014,43.370000000000005,254.094294308,3,0,4,0,3,0,3,19,33,0,2,2,0,0,0,0,0,2,0,0,0.125
"B-1315","2-hydroxyanthraquinone",-5.3093,"O=C1c2ccccc2C(=O)c2cc(O)ccc21","O=C1c2ccccc2C(=O)c2cc(O)ccc21",28.663755745360575,"O=C1c2ccccc2C(=O)c2cc(O)ccc12",2.1676,54.370000000000005,224.047344116,3,1,0,1,3,0,3,17,25,0,3,2,0,1,0,0,0,2,0,1,0
"B-1316","benzoic acid, 2-benzoyl-, methyl ester",-3.4776,"COC(=O)c1ccccc1C(=O)c1ccccc1","COC(=O)c1ccccc1C(=O)c1ccccc1",26.59480169816748,"COC(=O)c1ccccc1C(=O)c1ccccc1",2.704200000000001,43.370000000000005,240.078644244,3,0,3,0,3,0,3,18,30,0,2,2,0,0,0,0,0,2,0,0,0.06666666666666667
"B-1317","2,4(1h,3h)-quinazolinedione, 6,8-dinitro-",-3.2057,"O=c1[nH]c(=O)c2cc([N+](=O)[O-])cc([N+](=O)[O-])c2[nH]1","O=C1NC(=O)c2cc([N+](=O)[O-])cc([N+](=O)[O-])c2N1",1.5031789004272547,"O=c1[nH]c(=O)c2cc([N+](=O)[O-])cc([N+](=O)[O-])c2[nH]1",0.7783,144.48000000000002,252.013083848,10,2,2,2,6,3,10,18,22,0,2,1,0,1,0,0,1,1,0,0,0
"B-1318","1-methyl-2(h)-quinolinone",-1.0466,"Cn1c(=O)ccc2ccccc21","CN1C(=O)C=Cc2ccccc21",12.243765640628018,"Cn1c(=O)ccc2ccccc12",1.6762,20.310000000000002,159.068413908,2,0,0,0,1,1,2,12,21,0,2,1,0,1,0,0,1,1,0,0,0.1
"B-1319","4-hydroxy-2-methylquinoline",-1.2019,"Cc1cc(=O)c2ccccc2[nH]1","CC1=CC(=O)c2ccccc2N1",24.838328256720164,"Cc1cc(=O)c2ccccc2[nH]1",2.1986,29.1,159.068413908,2,1,0,1,2,0,2,12,21,0,2,1,0,1,0,0,1,1,0,0,0.1
"B-1324","propanedioic acid, oxo-, diethyl ester",0.5117,"CCOC(=O)C(=O)C(=O)OCC","CCOC(=O)C(=O)C(=O)OCC",43.08645862720978,"CCOC(=O)C(=O)C(=O)OCC",-0.31830000000000025,69.67,174.05282342,5,0,4,0,5,0,5,12,22,0,0,0,0,0,0,0,0,0,0,0,0.5714285714285714
"B-1325","2-nitro-1-butanol",-0.3436,"CCC(CO)[N+](=O)[O-]","CCC(CO)[N+](=O)[O-]",-11.083586880431172,"CCC(CO)[N+](=O)[O-]",0.033999999999999975,63.370000000000005,119.058243148,4,1,3,1,3,0,4,8,17,1,0,0,0,0,0,0,0,0,0,0,1
"B-1327","benzoic acid, 3-formyl-2-hydroxy-",-2.4423,"O=Cc1cccc(C(=O)[O-])c1O","O=Cc1cccc(C(=O)[O-])c1O",20.479155686909515,"O=Cc1cccc(C(=O)[O-])c1O",-0.43180000000000013,77.43,165.01933221991,4,1,2,1,4,0,4,12,17,0,1,1,0,0,0,0,0,1,0,0,0
"B-1328","2,4-dinitrobenzoic acid",-1.0665,"O=C([O-])c1ccc([N+](=O)[O-])cc1[N+](=O)[O-]","O=C([O-])c1ccc([N+](=O)[O-])cc1[N+](=O)[O-]",8.896850668035405,"O=C([O-])c1ccc([N+](=O)[O-])cc1[N+](=O)[O-]",-0.13350000000000029,126.41,210.99965939591002,8,0,3,0,6,0,8,15,18,0,1,1,0,0,0,0,0,1,0,0,0
"B-1329","1-methylanthracene",-5.8541,"Cc1cccc2cc3ccccc3cc12","Cc1cccc2cc3ccccc3cc12",39.450651596162864,"Cc1cccc2cc3ccccc3cc12",4.301420000000002,0,192.093900384,0,0,0,0,0,0,0,15,27,0,3,3,0,0,0,0,0,3,0,0,0.06666666666666667
"B-1330","1(3h)-isobenzofuranone, 6-nitro-",-2.6511,"O=C1OCc2ccc([N+](=O)[O-])cc21","O=C1OCc2ccc([N+](=O)[O-])cc21",18.855913067248565,"O=C1OCc2ccc([N+](=O)[O-])cc12",1.2652,69.44,179.02185764,5,0,1,0,4,0,5,13,18,0,2,1,0,1,0,0,1,1,0,0,0.125
"B-1333","1,2-benzenedimethanol",0.0569,"OCc1ccccc1CO","OCc1ccccc1CO",19.20561896062156,"OCc1ccccc1CO",0.6712,40.46,138.06807956,2,2,2,2,2,0,2,10,20,0,1,1,0,0,0,0,0,1,0,0,0.25
"B-1334","benzoic acid, 2-(hydroxymethyl)-",-1.5508,"O=C([O-])c1ccccc1CO","O=C([O-])c1ccccc1CO",19.281354413794862,"O=C([O-])c1ccccc1CO",-0.45760000000000006,60.36,151.04006766391,3,1,2,1,3,0,3,11,18,0,1,1,0,0,0,0,0,1,0,0,0.125
"B-1335","2-ethylnitrobenzene",-2.7993,"CCc1ccccc1[N+](=O)[O-]","CCc1ccccc1[N+](=O)[O-]",34.30897753546674,"CCc1ccccc1[N+](=O)[O-]",2.1572000000000005,43.14,151.063328528,3,0,2,0,2,0,3,11,20,0,1,1,0,0,0,0,0,1,0,0,0.25
"B-1336","2-nitrobenzyl alcohol",-1.4861,"O=[N+]([O-])c1ccccc1CO","O=[N+]([O-])c1ccccc1CO",23.726744854740943,"O=[N+]([O-])c1ccccc1CO",1.0871,63.370000000000005,153.042593084,4,1,2,1,3,0,4,11,18,0,1,1,0,0,0,0,0,1,0,0,0.14285714285714285
"B-1337","2-aminoanthracene",-5.1722,"Nc1ccc2cc3ccccc3cc2c1","Nc1ccc2cc3ccccc3cc2c1",37.61925975101865,"Nc1ccc2cc3ccccc3cc2c1",3.5752000000000015,26.02,193.089149352,1,2,0,1,1,0,1,15,26,0,3,3,0,0,0,0,0,3,0,0,0
"B-1338","nicotinic acid, ethyl ester",-0.4313,"CCOC(=O)c1cccnc1","CCOC(=O)c1cccnc1",3.233993124313223,"CCOC(=O)c1cccnc1",1.2583,39.19,151.063328528,3,0,2,0,3,0,3,11,20,0,1,1,0,0,1,0,0,0,0,0,0.25
"B-1341","ethyl n-methylnitrosocarbamate",-0.5528,"CCOC(=O)N(C)N=O","CCOC(=O)N(C)N=O",-24.364134132819643,"CCOC(=O)N(C)N=O",0.7561,58.97,132.053492116,5,0,2,0,4,1,5,9,17,0,0,0,0,0,0,0,0,0,0,0,0.75
"B-1343","dl-norleucine",-1.0453,"CCCCC([NH3+])C(=O)[O-]","CCCCC([NH3+])C(=O)[O-]",-64.35323141089557,"CCCCC([NH3+])C(=O)[O-]",-1.4629999999999983,67.77,131.094628656,3,3,4,1,2,0,3,9,22,1,0,0,0,0,0,0,0,0,0,0,0.8333333333333334
"B-1348","propylpropanedioic acid",0.6803,"CCCC(C(=O)[O-])C(=O)[O-]","CCCC(C(=O)[O-])C(=O)[O-]",42.451344054252516,"CCCC(C(=O)[O-])C(=O)[O-]",-2.0974999999999984,80.25999999999999,144.04335589582,4,0,4,0,4,0,4,10,18,0,0,0,0,0,0,0,0,0,0,0,0.6666666666666666