"ID","Name","Solubility","SMILES Canonical","Smiles (Optimized Geometry)","Energy","Smiles","SlogP","TPSA","ExactMW","NumLipinskiHBA","NumLipinskiHBD","NumRotatableBonds","NumHBD","NumHBA","NumAmideBonds","NumHeteroAtoms","NumHeavyAtoms","NumAtoms","NumStereocenters","NumRings","NumAromaticRings","NumSaturatedRings","NumAliphaticRings","NumAromaticHeterocycles","NumSaturatedHeterocycles","NumAliphaticHeterocycles","NumAromaticCarbocycles","NumSaturatedCarbocycles","NumAliphaticCarbocycles","FractionCSP3"
"B-2379","1,4-benzenedicarboxamide, n,n,n',n'-tetramethyl-",0.2656,"CN(C)C(=O)c1ccc(C(=O)N(C)C)cc1","CN(C)C(=O)c1ccc(C(=O)N(C)C)cc1",-4.957270363038699,"CN(C)C(=O)c1ccc(C(=O)N(C)C)cc1",1.0901999999999998,40.620000000000005,220.121177752,4,0,2,0,2,2,4,16,32,0,1,1,0,0,0,0,0,1,0,0,0.3333333333333333
"B-2380","3-pyridinecarboxamide, n-2-pyridinyl-",-2.9771,"O=C(Nc1ccccn1)c1cccnc1","O=C(Nc1ccccn1)c1cccnc1",14.687972182307348,"O=C(Nc1ccccn1)c1cccnc1",1.7288999999999999,54.88,199.074561908,4,1,2,1,3,1,4,15,24,0,2,2,0,0,2,0,0,0,0,0,0
"B-2383","o-ethyl s,s-dipropyl phosphorodithioate",-2.5094,"CCCSP(=O)(OCC)SCCC","CCCSP(=O)(OCC)SCCC",-70.00150327266884,"CCCSP(=O)(OCC)SCCC",4.417400000000004,26.3,242.05640847799998,2,0,8,0,4,0,5,13,32,0,0,0,0,0,0,0,0,0,0,0,1
"B-2384","8h-purin-8-one, 1,7-dihydro-",-1.5141,"O=c1[nH]c2cncnc2[nH]1","O=C1Nc2cncnc2N1",-25.59864466676494,"O=c1[nH]c2cncnc2[nH]1",0.43399999999999983,66.91,136.038510748,5,2,0,2,3,2,5,10,14,0,2,1,0,1,1,0,1,0,0,0,0
"B-2385","n-nitrososarcosine",0.9278,"CN(CC(=O)[O-])N=O","CN(CC(=O)[O-])N=O",41.26345169281524,"CN(CC(=O)[O-])N=O",-1.6504999999999999,72.80000000000001,117.03056559991,5,0,3,0,4,0,5,8,13,0,0,0,0,0,0,0,0,0,0,0,0.6666666666666666
"B-2386","imidodicarbonimidic diamide, n-1-naphthalenyl-",-2.3151,"NC(=[NH2+])NC(=[NH2+])Nc1cccc2ccccc12","NC(=[NH2+])NC(=[NH2+])Nc1cccc2ccccc12",30.26188921760256,"NC(=[NH2+])NC(=[NH2+])Nc1cccc2ccccc12",-1.9697999999999987,101.26,229.13164832017998,5,8,1,5,0,0,5,17,32,0,2,2,0,0,0,0,0,2,0,0,0
"B-2387","kitazine",-2.4155,"CCOP(=O)(OCC)SCc1ccccc1","CCOP(=O)(OCC)SCc1ccccc1",-74.71201582205428,"CCOP(=O)(OCC)SCc1ccccc1",4.100900000000003,35.53,260.06360203400004,3,0,7,0,4,0,5,16,33,0,1,1,0,0,0,0,0,1,0,0,0.45454545454545453
"B-2390","1-butanamine, n-ethyl-",-0.4405,"CCCC[NH2+]CC","CCCC[NH2+]CC",-0.35463440768430293,"CCCC[NH2+]CC",0.36980000000000024,16.61,102.12772593208999,1,2,4,1,0,0,1,7,23,0,0,0,0,0,0,0,0,0,0,0,1
"B-2391","2,4(1h,3h)-pteridinedione, 1,3-dimethyl-",-1.4598,"Cn1c(=O)c2nccnc2n(C)c1=O","CN1C(=O)c2nccnc2N(C)C1=O",4.138518641739566,"Cn1c(=O)c2nccnc2n(C)c1=O",0.11840000000000006,66.4,192.064725496,6,0,0,0,4,3,6,14,22,0,2,1,0,1,1,0,1,0,0,0,0.25
"B-2392","7-nitro-2,2-dimethyl-2,3-dihydrobenzofuran",-3.2068,"CC1(C)Cc2cccc([N+](=O)[O-])c2O1","CC1(C)Cc2cccc([N+](=O)[O-])c2O1",42.75019193237992,"CC1(C)Cc2cccc([N+](=O)[O-])c2O1",2.3083,52.370000000000005,193.073893212,4,0,1,0,3,0,4,14,25,0,2,1,0,1,0,0,1,1,0,0,0.4
"B-2395","pyrazophos",-4.9489,"CCOC(=O)c1cn2nc(OP(=S)(OCC)OCC)cc2nc1C","CCOC(=O)C1=Cn2nc(OP(=S)(OCC)OCC)cc2N=C1C",-63.359308072375335,"CCOC(=O)c1cn2nc(OP(=S)(OCC)OCC)cc2nc1C",3.0694000000000017,84.17000000000002,373.08612837,8,0,8,0,9,0,10,24,44,0,2,1,0,1,1,0,1,0,0,0,0.5
"B-2397","guazatine free base",0.3322,"NC(N)=[NH+]CCCCCCCC[NH2+]CCCCCCCC[NH+]=C(N)N","NC(N)=[NH+]CCCCCCCC[NH2+]CCCCCCCC[NH+]=C(N)N",63.810695661115375,"NC(=[NH+]CCCCCCCC[NH2+]CCCCCCCC[NH+]=C(N)N)N",-3.060999999999998,148.63,358.36417366827004,7,12,18,7,0,0,7,25,69,0,0,0,0,0,0,0,0,0,0,0,0.8888888888888888
"B-2398","2-diethylamino-4-ethylamino-6-methoxy-s-triazi*",-2.9987,"CCNc1nc(OC)nc(N(CC)CC)n1","CCNc1nc(OC)nc(N(CC)CC)n1",-209.78249332286106,"CCNc1nc(OC)nc(N(CC)CC)n1",1.1582,63.17000000000001,225.15896022799998,6,1,6,1,6,0,6,16,35,0,1,1,0,0,1,0,0,0,0,0,0.7
"B-2399","propanoic acid, 2-hydroxy-, 2-butoxy-1-methyl-2-",-1.3752,"CCCCOC(=O)C(C)OC(=O)C(C)O","CCCCOC(=O)C(C)OC(=O)C(C)O",22.54654311754724,"CCCCOC(=O)C(C)OC(=O)C(C)O",0.6421999999999999,72.83,218.115423676,5,1,6,1,5,0,5,15,33,2,0,0,0,0,0,0,0,0,0,0,0.8
"B-2400","urea, n,n''-methylenebis-",-0.6525,"NC(=O)NCNC(N)=O","NC(=O)NCNC(N)=O",-59.499668345593946,"NC(=O)NCNC(=O)N",-1.7195,110.24000000000001,132.064725496,6,6,2,4,2,4,6,9,17,0,0,0,0,0,0,0,0,0,0,0,0.3333333333333333
"B-2403","quinalphos",-4.1322,"CCOP(=S)(OCC)Oc1cnc2ccccc2n1","CCOP(=S)(OCC)Oc1cnc2ccccc2n1",-1.800081706113275,"CCOP(=S)(OCC)Oc1cnc2ccccc2n1",3.3061000000000016,53.47,298.05409997000004,5,0,6,0,6,0,7,19,34,0,2,2,0,0,1,0,0,1,0,0,0.3333333333333333
"B-2404","isonicotinic acid n-oxide",-1.102,"O=C([O-])c1cc[n+]([O-])cc1","O=C([O-])c1cc[n+]([O-])cc1",9.919137264710107,"O=C([O-])c1cc[n+]([O-])cc1",-1.3165,67.07,138.01966656791,4,0,1,0,3,0,4,10,14,0,1,1,0,0,1,0,0,0,0,0,0
"B-2405","piperidine, 3-propyl-,",-1.011,"CCCC1CCC[NH2+]C1","CCCC1CCC[NH2+]C1",6.251401119834579,"CCCC1CCC[NH2+]C1",0.7599000000000001,16.61,128.14337599609,1,2,2,1,0,0,1,9,27,1,1,0,1,1,0,1,1,0,0,0,1
"B-2414","metiazinic acid",-3.9422,"CN1c2ccccc2Sc2ccc(CC(=O)[O-])cc21","CN1c2ccccc2Sc2ccc(CC(=O)[O-])cc21",74.89871721297826,"CN1c2ccccc2Sc2ccc(CC(=O)[O-])cc12",2.2115,43.370000000000005,270.05942320391,3,0,2,0,4,0,4,19,31,0,3,2,0,1,0,0,1,2,0,0,0.13333333333333333
"B-2415","barbituric acid, 5,5-di-2-butenyl-",-2.1973,"CC=CCC1(CC=CC)C(=O)NC(=O)NC1=O","CC=CCC1(CC=CC)C(=O)NC(=O)NC1=O",-63.09468083260818,"CC=CCC1(CC=CC)C(=O)NC(=O)NC1=O",1.2711999999999999,75.27000000000001,236.116092372,5,2,4,2,3,4,5,17,33,0,1,0,1,1,0,1,1,0,0,0,0.4166666666666667
"B-2416","3-furancarboxylic acid, 2-methyl-5-(1,2,3,4-tetr",-1.2774,"Cc1oc([C@H](O)[C@H](O)[C@H](O)CO)cc1C(=O)[O-]","Cc1oc([C@H](O)[C@H](O)[C@H](O)CO)cc1C(=O)[O-]",23.54248288403616,"Cc1oc([C@H](O)[C@H](O)[C@H](O)CO)cc1C(=O)[O-]",-2.30098,134.19000000000003,245.06667633591002,7,4,5,4,7,0,7,17,30,3,1,1,0,0,1,0,0,0,0,0,0.5
"B-2418","4-pteridinamine, n,n-dimethyl-",-1.0216,"CN(C)c1ncnc2nccnc12","CN(C)c1ncnc2nccnc12",51.44198793137313,"CN(C)c1ncnc2nccnc12",0.4857999999999999,54.800000000000004,175.08579528799999,5,0,1,0,5,0,5,13,22,0,2,2,0,0,2,0,0,0,0,0,0.25
"B-2419","propanoic acid, 3-ethoxy-, methyl ester",-0.0719,"CCOCCC(=O)OC","CCOCCC(=O)OC",-18.11663194839109,"CCOCCC(=O)OC",0.5860000000000001,35.53,132.078644244,3,0,4,0,3,0,3,9,21,0,0,0,0,0,0,0,0,0,0,0,0.8333333333333334
"B-2420","propanoic acid, 3-ethoxy-, butyl ester",-1.6391,"CCCCOC(=O)CCOCC","CCCCOC(=O)CCOCC",-18.496679340971692,"CCCCOC(=O)CCOCC",1.7563,35.53,174.125594436,3,0,7,0,3,0,3,12,30,0,0,0,0,0,0,0,0,0,0,0,0.8888888888888888
"B-2421","propionic acid, 3-ethoxy-, pentyl ester",-2.1956,"CCCCCOC(=O)CCOCC","CCCCCOC(=O)CCOCC",-16.95642565114992,"CCCCCOC(=O)CCOCC",2.1464,35.53,188.1412445,3,0,8,0,3,0,3,13,33,0,0,0,0,0,0,0,0,0,0,0,0.9
"B-2422","propionic acid, 3-ethoxy-, hexyl ester",-2.8289,"CCCCCCOC(=O)CCOCC","CCCCCCOC(=O)CCOCC",-18.70141713149832,"CCCCCCOC(=O)CCOCC",2.536500000000001,35.53,202.156894564,3,0,9,0,3,0,3,14,36,0,0,0,0,0,0,0,0,0,0,0,0.9090909090909091
"B-2423","propionic acid, 3-propoxy-, methyl ester",-0.6334,"CCCOCCC(=O)OC","CCCOCCC(=O)OC",-18.23126776683962,"CCCOCCC(=O)OC",0.9761,35.53,146.094294308,3,0,5,0,3,0,3,10,24,0,0,0,0,0,0,0,0,0,0,0,0.8571428571428571
"B-2424","propanoic acid, 3-propoxy-, propyl ester",-1.6848,"CCCOCCC(=O)OCCC","CCCOCCC(=O)OCCC",-16.80802929967603,"CCCOCCC(=O)OCCC",1.7563,35.53,174.125594436,3,0,7,0,3,0,3,12,30,0,0,0,0,0,0,0,0,0,0,0,0.8888888888888888
"B-2425","propanoic acid, 3-butoxy-, butyl ester",-2.4029,"CCCCOCCC(=O)OCCCC","CCCCOCCC(=O)OCCCC",-18.712681032432425,"CCCCOCCC(=O)OCCCC",2.536500000000001,35.53,202.156894564,3,0,9,0,3,0,3,14,36,0,0,0,0,0,0,0,0,0,0,0,0.9090909090909091
"B-2427","Dibenzo-18-crown-6",-4.6935,"c1ccc2c(c1)OCCOCCOc1ccccc1OCCOCCO2","c1ccc2c(c1)OCCOCCOc1ccccc1OCCOCCO2",123.72464157766957,"c1ccc2c(c1)OCCOCCOc1ccccc1OCCOCCO2",2.948800000000001,55.38000000000001,360.15728848799995,6,0,0,0,6,0,6,26,50,0,3,2,0,1,0,0,1,2,0,0,0.4
"B-2428","difenoxuron",-4.1558,"COc1ccc(Oc2ccc(NC(=O)N(C)C)cc2)cc1","COc1ccc(Oc2ccc(NC(=O)N(C)C)cc2)cc1",16.70682374411544,"COc1ccc(Oc2ccc(NC(=O)N(C)C)cc2)cc1",3.581000000000002,50.800000000000004,286.131742436,5,1,4,1,3,2,5,21,39,0,2,2,0,0,0,0,0,2,0,0,0.1875
"B-2431","Valylglycine",0.4579,"CC(C)C([NH3+])C(=O)NCC(=O)[O-]","CC(C)C([NH3+])C(=O)NCC(=O)[O-]",-65.09874565348451,"CC(C)C([NH3+])C(=O)NCC(=O)[O-]",-2.8809999999999985,96.87,174.100442308,5,4,4,2,3,1,5,12,26,1,0,0,0,0,0,0,0,0,0,0,0.7142857142857143
"B-2432","1,3-benzenedicarboxamide, n,n,n',n'-tetramethyl-",0.487,"CN(C)C(=O)c1cccc(C(=O)N(C)C)c1","CN(C)C(=O)c1cccc(C(=O)N(C)C)c1",-8.753895777380208,"CN(C)C(=O)c1cccc(C(=O)N(C)C)c1",1.0902000000000003,40.620000000000005,220.121177752,4,0,2,0,2,2,4,16,32,0,1,1,0,0,0,0,0,1,0,0,0.3333333333333333
"B-2436","3-(2-methylphenoxy)pyridazine",-1.969,"Cc1ccccc1Oc1cccnn1","Cc1ccccc1Oc1cccnn1",50.20688633813795,"Cc1ccccc1Oc1cccnn1",2.5773200000000003,35.010000000000005,186.07931294,3,0,2,0,3,0,3,14,24,0,2,2,0,0,1,0,0,1,0,0,0.09090909090909091
"B-2437","1,2,4-triazolidine-3,5-dione, 4-methyl-1-phenyl-",-2.9804,"Cn1c(=O)[nH]n(-c2ccccc2)c1=O","CN1C(=O)NN(c2ccccc2)C1=O",-31.43808641615808,"Cn1c(=O)[nH]n(c2ccccc2)c1=O",1.183,52.650000000000006,191.069476528,5,1,1,1,2,4,5,14,23,0,2,1,1,1,0,1,1,1,0,0,0.1111111111111111
"B-2438","benzamide, 2-(2-propenyloxy)-",-2.2273,"C=CCOc1ccccc1C(N)=O","C=CCOc1ccccc1C(N)=O",30.739812558955343,"C=CCOc1ccccc1C(=O)N",1.3503,52.32,177.078978592,3,2,4,1,2,1,3,13,24,0,1,1,0,0,0,0,0,1,0,0,0.1
"B-2441","2,5-piperazinedione, 3-(1-methylethyl)-",-0.8926,"CC(C)C1NC(=O)CNC1=O","CC(C)C1NC(=O)CNC1=O",46.48677554154882,"CC(C)C1NC(=O)CNC1=O",-0.7430000000000001,58.2,156.089877624,4,2,1,2,2,2,4,11,23,1,1,0,1,1,0,1,1,0,0,0,0.7142857142857143
"B-2443","3-heptanol, 4-methyl- (van8ci9ci)",-1.9636,"CCCC(C)C(O)CC","CCCC(C)C(O)CC",7.507065346747568,"CCCC(C)C(O)CC",2.1935000000000002,20.23,130.135765196,1,1,4,1,1,0,1,9,27,2,0,0,0,0,0,0,0,0,0,0,1
"B-2444","1,6-dioxaspiro[4,4]nonane, 2,2,7,7-tetramethyl-",-1.9644,"CC1(C)CCC2(CCC(C)(C)O2)O1","CC1(C)CCC2(CCC(C)(C)O2)O1",-2.5679120117680174,"CC1(C)CCC2(CCC(C)(C)O2)O1",2.8607000000000014,18.46,184.14632988,2,0,0,0,2,0,2,13,33,0,2,0,2,2,0,2,2,0,0,0,1
"B-2445","phenol, 2,2'-sulfonylbis-",-3.3192,"O=S(=O)(c1ccccc1[O-])c1ccccc1[O-]","O=S(=O)(c1ccccc1[O-])c1ccccc1[O-]",165.12515190937614,"O=S(=O)(c1ccccc1[O-])c1ccccc1[O-]",0.6665999999999999,80.26,248.01542689582,4,0,2,0,4,0,5,17,25,0,2,2,0,0,0,0,0,2,0,0,0
"B-2446","dl-phenylalanine, n-(2-cyanoethyl)-",-1.4939,"N#CCC[NH2+][C@@H](Cc1ccccc1)C(=O)[O-]","N#CCC[NH2+][C@@H](Cc1ccccc1)C(=O)[O-]",-66.36173285109626,"N#CCC[NH2+][C@@H](Cc1ccccc1)C(=O)[O-]",-1.17532,80.53,218.105527688,4,2,6,1,3,0,4,16,30,1,1,1,0,0,0,0,0,1,0,0,0.3333333333333333
"B-2449","glutaric acid, 3-hydroxy-3-(phenylcarbamoyl)-",-0.4874,"O=C([O-])CC(O)(CC(=O)[O-])C(=O)Nc1ccccc1","O=C([O-])CC(O)(CC(=O)[O-])C(=O)Nc1ccccc1",50.87706805238253,"O=C([O-])CC(O)(CC(=O)[O-])C(=O)Nc1ccccc1",-2.3637999999999977,129.59,265.05973423182,7,2,6,2,6,1,7,19,30,0,1,1,0,0,0,0,0,1,0,0,0.25
"B-2456","n,n-diethyl-2-(1-naphthalenyloxy)propanamide",-3.5702,"CCN(CC)C(=O)C(C)Oc1cccc2ccccc12","CCN(CC)C(=O)C(C)Oc1cccc2ccccc12",50.45685854434311,"CCN(CC)C(=O)C(C)Oc1cccc2ccccc12",3.475500000000002,29.540000000000003,271.157228912,3,0,5,0,2,1,3,20,41,1,2,2,0,0,0,0,0,2,0,0,0.35294117647058826
"B-2459","1,3-benzodioxole-5-methanol, 6-nitro-",-3.0643,"O=[N+]([O-])c1ccc2c(c1CO)OCO2","O=[N+]([O-])c1ccc2c(c1CO)OCO2",24.533243947658733,"O=[N+]([O-])c1ccc2c(c1CO)OCO2",0.8157999999999999,81.83000000000001,197.032422324,6,1,2,1,5,0,6,14,21,0,2,1,0,1,0,0,1,1,0,0,0.25
"B-2460","fluorodifen",-5.2151,"O=[N+]([O-])c1ccc(Oc2ccc(C(F)(F)F)cc2[N+](=O)[O-])cc1","O=[N+]([O-])c1ccc(Oc2ccc(C(F)(F)F)cc2[N+](=O)[O-])cc1",66.10949583782231,"O=[N+]([O-])c1ccc(Oc2ccc(C(F)(F)F)cc2[N+](=O)[O-])cc1",4.314100000000002,95.51,328.030705984,7,0,4,0,5,0,10,23,30,0,2,2,0,0,0,0,0,2,0,0,0.07692307692307693
"B-2461","noxythiolin",-0.0798,"CNS#CNCO","CNS#CNCO",-3.2985255643924263,"CNS#CNCO",-0.6899000000000004,44.29,120.035733876,3,3,1,3,3,0,4,7,15,0,0,0,0,0,0,0,0,0,0,0,0.6666666666666666
"B-2462","propanenitrile, 2-(acetyloxy)-",0.2475,"CC(=O)OC(C)C#N","CC(=O)OC(C)C#N",-10.255592200916261,"CC(=O)OC(C)C#N",0.46157999999999993,50.09,113.047678464,3,0,1,0,3,0,3,8,15,1,0,0,0,0,0,0,0,0,0,0,0.6
"B-2465","quinoxaline-1,4-dihydro-2,3-dione",-2.812,"O=c1[nH]c2ccccc2[nH]c1=O","O=C1Nc2ccccc2NC1=O",63.34359899992521,"O=c1[nH]c2ccccc2[nH]c1=O",0.5771999999999999,58.2,162.042927432,4,2,0,2,2,2,4,12,18,0,2,1,0,1,0,0,1,1,0,0,0
"B-2466","4,4-dimethyloctane",-4.8108,"CCCCC(C)(C)CCC","CCCCC(C)(C)CCC",5.890903273758821,"CCCCC(C)(C)CCC",4.002900000000003,0,142.172150704,0,0,5,0,0,0,0,10,32,0,0,0,0,0,0,0,0,0,0,0,1
"B-2468","acetic acid, 2,2'-tetrathiobis-",-1.452,"O=C([O-])CSSSSCC(=O)[O-]","O=C([O-])CSSSSCC(=O)[O-]",75.29818356599412,"O=C([O-])CSSSSCC(=O)[O-]",-0.8360000000000003,80.25999999999999,243.90033976782001,4,0,7,0,8,0,8,12,16,0,0,0,0,0,0,0,0,0,0,0,0.5
"B-2469","ethanol, 2-butoxy-, carbamate",-0.5084,"CCCCOCCOC(N)=O","CCCCOCCOC(N)=O",-1.279692435785467,"CCCCOCCOC(=O)N",0.8984000000000001,61.550000000000004,161.10519334,4,2,6,1,3,1,4,11,26,0,0,0,0,0,0,0,0,0,0,0,0.8571428571428571
"B-2473","carbetamide",-1.8293,"CCNC(=O)[C@H](C)OC(=O)Nc1ccccc1","CCNC(=O)[C@H](C)OC(=O)Nc1ccccc1",-1.014551110597357,"CCNC(=O)[C@H](C)OC(=O)Nc1ccccc1",1.7596999999999998,67.42999999999999,236.116092372,5,2,4,2,3,2,5,17,33,1,1,1,0,0,0,0,0,1,0,0,0.3333333333333333
"B-2474","phosphonic acid, hexyl-, diethyl ester",-2.5687,"CCCCCCP(=O)(OCC)OCC","CCCCCCP(=O)(OCC)OCC",-40.76888782294093,"CCCCCCP(=O)(OCC)OCC",3.8328000000000033,35.53,222.13848122599998,3,0,9,0,3,0,4,14,37,0,0,0,0,0,0,0,0,0,0,0,1
"B-2475","2-naphthol, 3-(2-imidazolin-2-yl)-",-3.3015,"Oc1cc2ccccc2cc1C1=[NH+]CCN1","Oc1cc2ccccc2cc1C1=[NH+]CCN1",35.037265693843324,"Oc1cc2ccccc2cc1C1=[NH+]CCN1",-0.024200000000000388,46.230000000000004,213.10223945609,3,3,1,3,2,0,3,16,29,0,3,2,0,1,0,0,1,2,0,0,0.15384615384615385
"B-2477","2-propenoic acid, 3-[2-(acetyloxy)phenyl]-, (e)-",-3.1559,"CC(=O)Oc1ccccc1C=CC(=O)[O-]","CC(=O)Oc1ccccc1C=CC(=O)[O-]",31.569701643265677,"CC(=O)Oc1ccccc1C=CC(=O)[O-]",0.3749999999999998,66.43,205.05063234791,4,0,3,0,4,0,4,15,24,0,1,1,0,0,0,0,0,1,0,0,0.09090909090909091
"B-2480","l-glutamic acid, n-l-leucyl-",-0.8969,"CC(C)C[C@H]([NH3+])C(=O)N[C@@H](CCC(=O)[O-])C(=O)[O-]","CC(C)C[C@H]([NH3+])C(=O)N[C@@H](CCC(=O)[O-])C(=O)[O-]",-99.68188936436957,"CC(C)C[C@H]([NH3+])C(=O)N[C@@H](CCC(=O)[O-])C(=O)[O-]",-3.5921999999999974,137,259.12994528791,7,4,8,2,5,1,7,18,37,2,0,0,0,0,0,0,0,0,0,0,0.7272727272727273
"B-2481","butanamide, n-methyl-n-nitroso-",-1.5347,"CCCC(=O)N(C)N=O","CCCC(=O)N(C)N=O",-4.4898916546681145,"CCCC(=O)N(C)N=O",0.9263,49.74,130.07422756,4,0,3,0,3,1,4,9,19,0,0,0,0,0,0,0,0,0,0,0,0.8
"B-2485","hydantoin, 5-methyl-5-(2-piperidinoethyl)-",-0.8213,"CC1(CC[NH+]2CCCCC2)NC(=O)NC1=O","CC1(CC[NH+]2CCCCC2)NC(=O)NC1=O",-13.889717816572993,"CC1(CC[NH+]2CCCCC2)NC(=O)NC1=O",-0.9565999999999986,62.64,226.15500330009,5,3,3,3,2,3,5,16,36,1,2,0,2,2,0,2,2,0,0,0,0.8181818181818182
"B-2487","2-thiazolecarboxylic acid, hydrazide",-0.6787,"NNC(=O)c1nccs1","NNC(=O)c1nccs1",36.93238713591545,"NNC(=O)c1nccs1",-0.25340000000000046,68.00999999999999,143.01533278,4,3,1,2,4,1,5,9,14,0,1,1,0,0,1,0,0,0,0,0,0
"B-2488","methomyl",-0.4466,"CNC(=O)ON=C(C)SC","CNC(=O)ON=C(C)SC",15.270456293724651,"CNC(=O)ON=C(C)SC",1.0388,50.69,162.04629856,4,1,1,1,4,1,5,10,20,0,0,0,0,0,0,0,0,0,0,0,0.6
"B-2491","benzenesulfonamide, 4-amino-n-1,3,4-thiadiazol-2",-2.8684,"Nc1ccc(S(=O)(=O)Nc2nncs2)cc1","Nc1ccc(S(=O)(=O)Nc2nncs2)cc1",-34.183423433509454,"Nc1ccc(S(=O)(=O)Nc2nncs2)cc1",0.9210999999999998,97.97,256.008867496,6,3,3,2,6,0,8,16,24,0,2,2,0,0,1,0,0,1,0,0,0
"B-2492","2-furanacetic acid, tetrahydro-2-methyl-5-oxo-,",-0.7472,"CCOC(=O)CC1(C)CCC(=O)O1","CCOC(=O)CC1(C)CCC(=O)O1",-24.055896935862645,"CCOC(=O)CC1(C)CCC(=O)O1",1.0353,52.60000000000001,186.089208928,4,0,3,0,4,0,4,13,27,1,1,0,1,1,0,1,1,0,0,0,0.7777777777777778
"B-2493","succinic acid, 2-ethyl-3-phenyl-",-2.3256,"CCC(C(=O)[O-])C(C(=O)[O-])c1ccccc1","CCC(C(=O)[O-])C(C(=O)[O-])c1ccccc1",96.24182981886888,"CCC(C(=O)[O-])C(C(=O)[O-])c1ccccc1",-0.7037999999999991,80.25999999999999,220.07465602382,4,0,5,0,4,0,4,16,28,2,1,1,0,0,0,0,0,1,0,0,0.3333333333333333
"B-2495","pteridine, 2-(methylthio)-",-1.7561,"CSc1ncc2nccnc2n1","CSc1ncc2nccnc2n1",29.817640737491512,"CSc1ncc2nccnc2n1",1.1416999999999997,51.56,178.031317192,4,0,1,0,5,0,5,12,18,0,2,2,0,0,2,0,0,0,0,0,0.14285714285714285
"B-2497","1,4-benzenedisulfonamide",-2.5283,"NS(=O)(=O)c1ccc(S(N)(=O)=O)cc1","NS(=O)(=O)c1ccc(S(N)(=O)=O)cc1",9.349217566032996,"NS(=O)(=O)c1ccc(S(=O)(=O)N)cc1",-1.0185999999999993,120.32,235.992548736,6,4,2,2,4,0,8,14,22,0,1,1,0,0,0,0,0,1,0,0,0
"B-2498","barbituric acid,5,5-dibutyl-",-2.8756,"CCCCC1(CCCC)C(=O)NC(=O)NC1=O","CCCCC1(CCCC)C(=O)NC(=O)NC1=O",-45.38650527652413,"CCCCC1(CCCC)C(=O)NC(=O)NC1=O",1.7191999999999998,75.27000000000001,240.1473925,5,2,6,2,3,4,5,17,37,0,1,0,1,1,0,1,1,0,0,0,0.75
"B-2499","8-cinnolinol",-2.4089,"Oc1cccc2ccnnc12","Oc1cccc2ccnnc12",39.66204007430558,"Oc1cccc2ccnnc12",1.3353999999999997,46.010000000000005,146.048012812,3,1,0,1,3,0,3,11,17,0,2,2,0,0,1,0,0,1,0,0,0
"B-2500","8-cinnolinol, 4-methyl-",-2.6783,"Cc1cnnc2c(O)cccc12","Cc1cnnc2c(O)cccc12",42.04919841886517,"Cc1cnnc2c(O)cccc12",1.6438199999999998,46.010000000000005,160.063662876,3,1,0,1,3,0,3,12,20,0,2,2,0,0,1,0,0,1,0,0,0.1111111111111111
"B-2501","5-quinoxalinol",-1.3468,"Oc1cccc2nccnc12","Oc1cccc2nccnc12",84.27323476555301,"Oc1cccc2nccnc12",1.3354,46.010000000000005,146.048012812,3,1,0,1,3,0,3,11,17,0,2,2,0,0,1,0,0,1,0,0,0
"B-2502","1,6-naphthyridin-8-ol",-1.6576,"Oc1cncc2cccnc12","Oc1cncc2cccnc12",25.487733419000538,"Oc1cncc2cccnc12",1.3354,46.010000000000005,146.048012812,3,1,0,1,3,0,3,11,17,0,2,2,0,0,2,0,0,0,0,0,0
"B-2503","glycine, n-[n-(n-carbamoylglycyl)glycyl]-",-1.3505,"NC(=O)NCC(=O)NCC(=O)NCC(=O)[O-]","NC(=O)NCC(=O)NCC(=O)NCC(=O)[O-]",27.546180304516767,"NC(=O)NCC(=O)NCC(=O)NCC(=O)[O-]",-4.3629999999999995,153.45,231.07349303191,9,5,6,4,5,4,9,16,27,0,0,0,0,0,0,0,0,0,0,0,0.42857142857142855
"B-2504","butanoic acid, 2-(ethylamino)-",-0.4189,"CC[NH2+]C(CC)C(=O)[O-]","CC[NH2+]C(CC)C(=O)[O-]",-42.8701793363084,"CC[NH2+]C(CC)C(=O)[O-]",-1.9017999999999982,56.739999999999995,131.094628656,3,2,4,1,2,0,3,9,22,1,0,0,0,0,0,0,0,0,0,0,0.8333333333333334
"B-2505","benzeneacetic acid, .alpha.-hydroxy-, (s)-",0.1592,"O=C([O-])[C@@H](O)c1ccccc1","O=C([O-])[C@@H](O)c1ccccc1",79.76095292042376,"O=C([O-])[C@@H](O)c1ccccc1",-0.5301000000000007,60.36,151.04006766390998,3,1,2,1,3,0,3,11,18,1,1,1,0,0,0,0,0,1,0,0,0.125
"B-2506","glycine, n-[n-(aminocarbonyl)glycyl]-",-0.8996,"NC(=O)NCC(=O)NCC(=O)[O-]","NC(=O)NCC(=O)NCC(=O)[O-]",27.696234233718805,"NC(=O)NCC(=O)NCC(=O)[O-]",-3.4791999999999996,124.35,174.05202931591,7,4,4,3,4,3,7,12,20,0,0,0,0,0,0,0,0,0,0,0,0.4
"B-2507","isopropyl t-butyl ether",-2.3662,"CC(C)OC(C)(C)C","CC(C)OC(C)(C)C",6.626187333043761,"CC(C)OC(C)(C)C",2.2099,9.23,116.120115132,1,0,1,0,1,0,1,8,24,0,0,0,0,0,0,0,0,0,0,0,1
"B-2508","3,5-dinitro-l-tyrosine",-1.5125,"[NH3+][C@@H](Cc1cc([N+](=O)[O-])c([O-])c([N+](=O)[O-])c1)C(=O)[O-]","[NH3+][C@@H](Cc1cc([N+](=O)[O-])c([O-])c([N+](=O)[O-])c1)C(=O)[O-]",27.5944365723448,"[NH3+][C@@H](Cc1cc([N+](=O)[O-])c([O-])c([N+](=O)[O-])c1)C(=O)[O-]",-2.5204999999999993,177.11,270.03677317591,10,3,5,1,7,0,10,19,27,1,1,1,0,0,0,0,0,1,0,0,0.2222222222222222
"B-2509","acetone, 4-(p-nitrophenyl)semicarbazone",-3.5952,"CC(C)=NNC(=O)Nc1ccc([N+](=O)[O-])cc1","CC(C)=NNC(=O)Nc1ccc([N+](=O)[O-])cc1",60.53068129037702,"CC(=NNC(=O)Nc1ccc([N+](=O)[O-])cc1)C",2.1121,96.63,236.090940244,7,2,3,2,4,2,7,17,29,0,1,1,0,0,0,0,0,1,0,0,0.2
"B-2510","1,3,5-benzenetricarboxylic acid, 2-methoxy-",-1.5354,"COc1c(C(=O)[O-])cc(C(=O)[O-])cc1C(=O)[O-]","COc1c(C(=O)[O-])cc(C(=O)[O-])cc1C(=O)[O-]",206.28882057421532,"COc1c(C(=O)[O-])cc(C(=O)[O-])cc1C(=O)[O-]",-3.2142999999999997,129.62,237.00517323973003,7,0,4,0,7,0,7,17,22,0,1,1,0,0,0,0,0,1,0,0,0.1