"ID","Name","Solubility","SMILES Canonical","Smiles (Optimized Geometry)","Energy","Smiles","SlogP","TPSA","ExactMW","NumLipinskiHBA","NumLipinskiHBD","NumRotatableBonds","NumHBD","NumHBA","NumAmideBonds","NumHeteroAtoms","NumHeavyAtoms","NumAtoms","NumStereocenters","NumRings","NumAromaticRings","NumSaturatedRings","NumAliphaticRings","NumAromaticHeterocycles","NumSaturatedHeterocycles","NumAliphaticHeterocycles","NumAromaticCarbocycles","NumSaturatedCarbocycles","NumAliphaticCarbocycles","FractionCSP3"
"A-2510","1-(hexyloxy)hexane",-4.2703037605,"CCCCCCOCCCCCC","CCCCCCOCCCCCC",-0.9359856952550754,"CCCCCCOCCCCCC",4.163600000000003,9.23,186.198365452,1,0,10,0,1,0,1,13,39,0,0,0,0,0,0,0,0,0,0,0,1
"A-2511","3-[[2-(2-cyanoethoxy)ethyl][4-[(4-nitrophenyl)azo]phenyl]amino]propiononitrile",-4.5937500267,"N#CCCOCCN(CCC#N)c1ccc(N=Nc2ccc([N+](=O)[O-])cc2)cc1","N#CCCOCCN(CCC#N)c1ccc(N=Nc2ccc([N+](=O)[O-])cc2)cc1",78.17049479815104,"N#CCCOCCN(CCC#N)c1ccc(N=Nc2ccc([N+](=O)[O-])cc2)cc1",4.660560000000005,127.91,392.15968849999996,9,0,11,0,8,0,9,29,49,0,2,2,0,0,0,0,0,2,0,0,0.3
"A-2514","decahydronaphthalene",-4.1406777053,"C1CCC2CCCCC2C1","C1CCC2CCCCC2C1",19.2538850803343,"C1CCC2CCCCC2C1",3.3668000000000022,0,138.140850576,0,0,0,0,0,0,0,10,28,0,2,0,2,2,0,0,0,0,2,2,1
"A-2517","propane-1,2-diyl bisoctadec-9-enoate",-4.7817560925,"CCCCCCCCC=CCCCCCCCC(=O)OCC(C)OC(=O)CCCCCCCC=CCCCCCCCC","CCCCCCCCC=CCCCCCCCC(=O)OCC(C)OC(=O)CCCCCCCC=CCCCCCCCC",-16.834203379773708,"CCCCCCCCC=CCCCCCCCC(=O)OCC(C)OC(=O)CCCCCCCC=CCCCCCCCC",12.536299999999981,52.6,604.5430607839999,4,0,33,0,4,0,4,43,115,1,0,0,0,0,0,0,0,0,0,0,0.8461538461538461
"A-2519","4',4'''-azobis[N-(9,10-dihydro-9,10-dioxo-1-anthryl)[1,1'-biphenyl]-4-carboxamide]",-5.7164582793,"O=C(Nc1cccc2c1C(=O)c1ccccc1C2=O)c1ccc(-c2ccc(N=Nc3ccc(-c4ccc(C(=O)Nc5cccc6c5C(=O)c5ccccc5C6=O)cc4)cc3)cc2)cc1","O=C(Nc1cccc2c1C(=O)c1ccccc1C2=O)c1ccc(-c2ccc(N=Nc3ccc(-c4ccc(C(=O)Nc5cccc6c5C(=O)c5ccccc5C6=O)cc4)cc3)cc2)cc1",160.36880998915558,"O=C(Nc1cccc2c1C(=O)c1ccccc1C2=O)c1ccc(c2ccc(N=Nc3ccc(c4ccc(C(=O)Nc5cccc6c5C(=O)c5ccccc5C6=O)cc4)cc3)cc2)cc1",11.491399999999986,151.2,832.232184744,10,2,8,2,8,2,10,64,96,0,10,8,0,2,0,0,0,8,0,2,0
"A-2521","Violanthrone",-5.5133127462,"O=C1c2ccccc2-c2ccc3c4ccc5c6c(ccc(c7ccc1c2c73)c64)C(=O)c1ccccc1-5","O=C1c2ccccc2-c2ccc3c4ccc5c6c(ccc(c7ccc1c2c73)c64)C(=O)c1ccccc1-5",124.75405460581204,"O=C1c2ccccc2c2ccc3c4ccc5c6c(ccc(c7ccc1c2c37)c46)C(=O)c1ccccc51",8.160000000000004,34.14,456.115029752,2,0,0,0,2,0,2,36,52,0,9,7,0,2,0,0,0,7,0,2,0
"A-2525","Vat green 1",-5.5991706951,"COc1cc2c3c(ccc4c5ccc6c7c(cc(OC)c(c1c34)c75)-c1ccccc1C6=O)C(=O)c1ccccc1-2","COc1cc2c3c(ccc4c5ccc6c7c(cc(OC)c(c1c34)c75)-c1ccccc1C6=O)C(=O)c1ccccc1-2",159.21396050898622,"COc1cc2c3c(ccc4c5ccc6c7c(cc(OC)c(c1c34)c57)c1ccccc1C6=O)C(=O)c1ccccc21",8.177200000000004,52.6,516.13615912,4,0,2,0,4,0,4,40,60,0,9,7,0,2,0,0,0,7,0,2,0.05555555555555555
"A-2526","Alcohols, C12-15-branched and linear",-5.1563604082,"CCCCC[C@H](CCC)CCCO","CCCCC[C@H](CCC)CCCO",6.487364881284146,"CCCCC[C@H](CCC)CCCO",3.7555000000000027,20.23,186.198365452,1,1,9,1,1,0,1,13,39,1,0,0,0,0,0,0,0,0,0,0,1
"A-2528","1,1-bis(tert-butylperoxy)cyclohexane",-5.3862138373,"CC(C)(C)OOC1(OOC(C)(C)C)CCCCC1","CC(C)(C)OOC1(OOC(C)(C)C)CCCCC1",45.041832488222745,"CC(C)(C)OOC1(OOC(C)(C)C)CCCCC1",4.140200000000004,36.92,260.198759376,4,0,4,0,4,0,4,18,46,0,1,0,1,1,0,0,0,0,1,1,1
"A-2532","(2E,4E,6E,8E)-3,7-dimethyl-9-(2,6,6-trimethylcyclohex-1-en-1-yl)nona-2,4,6,8-tetraen-1-yl hexadecanoate",-5.7200550602,"CCCCCCCCCCCCCCCC(=O)OCC=C(C)C=CC=C(C)C=CC1=C(C)CCCC1(C)C","CCCCCCCCCCCCCCCC(=O)OCC=C(C)C=CC=C(C)C=CC1=C(C)CCCC1(C)C",8.856193903613665,"CCCCCCCCCCCCCCCC(=O)OCC=C(C)C=CC=C(C)C=CC1=C(C)CCCC1(C)C",11.542499999999986,26.3,524.45933116,2,0,20,0,2,0,2,38,98,0,1,0,0,1,0,0,0,0,0,1,0.6944444444444444
"A-2535","(2R)-2-[4-[5-(trifluoromethyl)pyridin-2-yl]oxyphenoxy]propanoic acid",-2.6227956692,"C[C@@H](Oc1ccc(Oc2ccc(C(F)(F)F)cn2)cc1)C(=O)[O-]","C[C@@H](Oc1ccc(Oc2ccc(C(F)(F)F)cn2)cc1)C(=O)[O-]",76.97816048087184,"C[C@@H](Oc1ccc(Oc2ccc(C(F)(F)F)cn2)cc1)C(=O)[O-]",2.4099000000000004,71.48,326.06456607191,5,0,5,0,5,0,8,23,34,1,2,2,0,0,1,0,0,1,0,0,0.2
"A-2537","1,1-bis[(2-methylbutan-2-yl)peroxy]cyclohexane",-5.4600374185,"CCC(C)(C)OOC1(OOC(C)(C)CC)CCCCC1","CCC(C)(C)OOC1(OOC(C)(C)CC)CCCCC1",52.93571456469998,"CCC(C)(C)OOC1(OOC(C)(C)CC)CCCCC1",4.920400000000005,36.92,288.230059504,4,0,8,0,4,0,4,20,52,0,1,0,1,1,0,0,0,0,1,1,1
"A-2538","1,2-Dihydro-2,2,4-trimethylquinoline, oligomers",-5.2386958035,"CC1=CC(C)(C)Nc2ccccc21","CC1=CC(C)(C)Nc2ccccc21",33.88958523403775,"CC1=CC(C)(C)Nc2ccccc12",3.2940000000000014,12.03,173.12044948,1,1,0,1,1,0,1,13,28,0,2,1,0,1,0,0,1,1,0,0,0.3333333333333333
"A-2544","2-(2H-1,2,3-benzotriazol-2-yl)-4-(2,4,4-trimethylpentan-2-yl)phenol",-5.5097937283,"CC(C)(C)CC(C)(C)c1ccc(O)c(-n2nc3ccccc3n2)c1","CC(C)(C)CC(C)(C)c1ccc(O)c(-n2nc3ccccc3n2)c1",57.61469113145638,"CC(C)(C)CC(C)(C)c1ccc(O)c(n2nc3ccccc3n2)c1",4.839900000000005,50.94,323.19976242,4,1,3,1,4,0,4,24,49,0,3,3,0,0,1,0,0,2,0,0,0.4
"A-2545","2-(2H-1,2,3-benzotriazol-2-yl)-4-methylphenol",-5.3526667277,"Cc1ccc(O)c(-n2nc3ccccc3n2)c1","Cc1ccc(O)c(-n2nc3ccccc3n2)c1",42.74019198563519,"Cc1ccc(O)c(n2nc3ccccc3n2)c1",2.43452,50.94,225.090211972,4,1,1,1,4,0,4,17,28,0,3,3,0,0,1,0,0,2,0,0,0.07692307692307693
"A-2546","2-[(2-{[3-(3,5-di-tert-butyl-4-hydroxyphenyl)propanoyl]oxy}ethyl)sulfanyl]ethyl 3-(3,5-di-tert-butyl-4-hydroxyphenyl)propanoate",-5.8081724723,"CC(C)(C)c1cc(CCC(=O)OCCSCCOC(=O)CCc2cc(C(C)(C)C)c(O)c(C(C)(C)C)c2)cc(C(C)(C)C)c1O","CC(C)(C)c1cc(CCC(=O)OCCSCCOC(=O)CCc2cc(C(C)(C)C)c(O)c(C(C)(C)C)c2)cc(C(C)(C)C)c1O",28.6725228892682,"CC(C)(C)c1cc(CCC(=O)OCCSCCOC(=O)CCc2cc(C(C)(C)C)c(O)c(C(C)(C)C)c2)cc(C(C)(C)C)c1O",8.672800000000006,93.06,642.395410576,6,2,12,2,7,0,7,45,103,0,2,2,0,0,0,0,0,2,0,0,0.631578947368421
"A-2547","2-[2-(2-{[3-(3-tert-butyl-4-hydroxy-5-methylphenyl)propanoyl]oxy}ethoxy)ethoxy]ethyl 3-(3-tert-butyl-4-hydroxy-5-methylphenyl)propanoate",-5.7684649408,"Cc1cc(CCC(=O)OCCOCCOCCOC(=O)CCc2cc(C)c(O)c(C(C)(C)C)c2)cc(C(C)(C)C)c1O","Cc1cc(CCC(=O)OCCOCCOCCOC(=O)CCc2cc(C)c(O)c(C(C)(C)C)c2)cc(C(C)(C)C)c1O",35.67230030935257,"Cc1cc(CCC(=O)OCCOCCOCCOC(=O)CCc2cc(C)c(O)c(C(C)(C)C)c2)cc(C(C)(C)C)c1O",5.9946400000000075,111.52000000000001,586.35056856,8,2,15,2,8,0,8,42,92,0,2,2,0,0,0,0,0,2,0,0,0.5882352941176471
"A-2548","2-benzoyl-5-(octyloxy)phenol",-5.5137980476,"CCCCCCCCOc1ccc(C(=O)c2ccccc2)c(O)c1","CCCCCCCCOc1ccc(C(=O)c2ccccc2)c(O)c1",49.0718518466621,"CCCCCCCCOc1ccc(C(=O)c2ccccc2)c(O)c1",5.362500000000006,46.53,326.18819469199997,3,1,10,1,3,0,3,24,50,0,2,2,0,0,0,0,0,2,0,0,0.38095238095238093
"A-2549","2-butyloctan-1-ol",-5.2703037605,"CCCCCCC(CO)CCCC","CCCCCCC(CO)CCCC",3.6892511277770526,"CCCCCCC(CO)CCCC",3.755500000000003,20.23,186.198365452,1,1,9,1,1,0,1,13,39,1,0,0,0,0,0,0,0,0,0,0,1
"A-2550","2-decyltetradecan-1-ol",-5.5498158833,"CCCCCCCCCCCCC(CO)CCCCCCCCCC","CCCCCCCCCCCCC(CO)CCCCCCCCCC",5.996016137691057,"CCCCCCCCCCCCC(CO)CCCCCCCCCC",8.436700000000007,20.23,354.38616622,1,1,21,1,1,0,1,25,75,1,0,0,0,0,0,0,0,0,0,0,1
"A-2551","2-dodecylhexadecan-1-ol",-5.6135997753,"CCCCCCCCCCCCCCC(CO)CCCCCCCCCCCC","CCCCCCCCCCCCCCC(CO)CCCCCCCCCCCC",3.530768461736395,"CCCCCCCCCCCCCCC(CO)CCCCCCCCCCCC",9.997099999999996,20.23,410.44876647600006,1,1,25,1,1,0,1,29,87,1,0,0,0,0,0,0,0,0,0,0,1
"A-2552","2-ethyl-1-{[(2-ethylhexyl)oxy]methoxy}hexane",-5.4353234735,"CCCCC(CC)COCOCC(CC)CCCC","CCCCC(CC)COCOCC(CC)CCCC",-8.87779926880756,"CCCCC(CC)COCOCC(CC)CCCC",5.409900000000006,18.46,272.271530392,2,0,14,0,2,0,2,19,55,2,0,0,0,0,0,0,0,0,0,0,1
"A-2553","2-hexyldecan-1-ol",-5.3846168146,"CCCCCCCCC(CO)CCCCCC","CCCCCCCCC(CO)CCCCCC",3.061795031080208,"CCCCCCCCC(CO)CCCCCC",5.315900000000005,20.23,242.26096570800001,1,1,13,1,1,0,1,17,51,1,0,0,0,0,0,0,0,0,0,0,1
"A-2555","2-tert-butyl-6-[(3-tert-butyl-5-ethyl-2-hydroxyphenyl)methyl]-4-ethylphenol",-5.5665093776,"CCc1cc(Cc2cc(CC)cc(C(C)(C)C)c2O)c(O)c(C(C)(C)C)c1","CCc1cc(Cc2cc(CC)cc(C(C)(C)C)c2O)c(O)c(C(C)(C)C)c1",36.97271966087324,"CCc1cc(Cc2cc(CC)cc(C(C)(C)C)c2O)c(O)c(C(C)(C)C)c1",6.408400000000008,40.46,368.271530392,2,2,4,2,2,0,2,27,63,0,2,2,0,0,0,0,0,2,0,0,0.52
"A-2556","2-tetradecyloctadecan-1-ol",-5.66920434,"CCCCCCCCCCCCCCCCC(CO)CCCCCCCCCCCCCC","CCCCCCCCCCCCCCCCC(CO)CCCCCCCCCCCCCC",3.0918791981899374,"CCCCCCCCCCCCCCCCC(CO)CCCCCCCCCCCCCC",11.557499999999985,20.23,466.51136673200006,1,1,29,1,1,0,1,33,99,1,0,0,0,0,0,0,0,0,0,0,1
"A-2559","3-octadecyl-1-{3-[(octadecylcarbamoyl)amino]propyl}urea",-5.8229189425,"CCCCCCCCCCCCCCCCCCNC(=O)NCCCNC(=O)NCCCCCCCCCCCCCCCCCC","CCCCCCCCCCCCCCCCCCNC(=O)NCCCNC(=O)NCCCCCCCCCCCCCCCCCC",-79.68761160754227,"CCCCCCCCCCCCCCCCCCNC(=O)NCCCNC(=O)NCCCCCCCCCCCCCCCCCC",12.497899999999984,82.26,664.659427928,6,4,38,4,2,4,6,47,131,0,0,0,0,0,0,0,0,0,0,0,0.9512195121951219
"A-2561","4-amino-N-(2-ethylhexyl)benzene-1-sulfonamide",-5.4539677668,"CCCCC(CC)CNS(=O)(=O)c1ccc(N)cc1","CCCCC(CC)CNS(=O)(=O)c1ccc(N)cc1",-16.660780288374216,"CCCCC(CC)CNS(=O)(=O)c1ccc(N)cc1",2.7635000000000005,72.19,284.155849008,4,3,8,2,3,0,5,19,43,1,1,1,0,0,0,0,0,1,0,0,0.5714285714285714
"A-2563","5-tert-butyl-2-[5-(5-tert-butyl-1,3-benzoxazol-2-yl)thiophen-2-yl]-1,3-benzoxazole",-5.634046793,"CC(C)(C)c1ccc2oc(-c3ccc(-c4nc5cc(C(C)(C)C)ccc5o4)s3)nc2c1","CC(C)(C)c1ccc2oc(-c3ccc(-c4nc5cc(C(C)(C)C)ccc5o4)s3)nc2c1",56.81279114647085,"CC(C)(C)c1ccc2oc(c3ccc(c4nc5cc(C(C)(C)C)ccc5o4)s3)nc2c1",7.9595000000000065,52.06,430.17149907199996,4,0,2,0,5,0,5,31,57,0,5,5,0,0,3,0,0,2,0,0,0.3076923076923077
"A-2565","Pigment Red 224",-5.5936426625,"O=C1OC(=O)c2ccc3c4ccc5c6c(ccc(c7ccc1c2c73)c64)C(=O)OC5=O","O=C1OC(=O)c2ccc3c4ccc5c6c(ccc(c7ccc1c2c73)c64)C(=O)OC5=O",68.95925846328075,"O=C1OC(=O)c2ccc3c4ccc5c6c(ccc(c7ccc1c2c37)c46)C(=O)OC5=O",4.358400000000002,86.74000000000001,392.0320879759999,6,0,0,0,6,0,6,30,38,0,7,5,0,2,0,0,2,5,0,0,0
"A-2566","O,O,O-tris(4-nitrophenyl) thiophosphate",-5.6788341975,"O=[N+]([O-])c1ccc(OP(=S)(Oc2ccc([N+](=O)[O-])cc2)Oc2ccc([N+](=O)[O-])cc2)cc1","O=[N+]([O-])c1ccc(OP(=S)(Oc2ccc([N+](=O)[O-])cc2)Oc2ccc([N+](=O)[O-])cc2)cc1",62.974129269391625,"O=[N+]([O-])c1ccc(OP(=S)(Oc2ccc([N+](=O)[O-])cc2)Oc2ccc([N+](=O)[O-])cc2)cc1",5.172500000000003,157.11,477.00318659399994,12,0,9,0,10,0,14,32,44,0,3,3,0,0,0,0,0,3,0,0,0
"A-2569","bis(11-methyldodecyl) phthalate",-5.7249587317,"CC(C)CCCCCCCCCCOC(=O)c1ccccc1C(=O)OCCCCCCCCCCC(C)C","CC(C)CCCCCCCCCCOC(=O)c1ccccc1C(=O)OCCCCCCCCCCC(C)C",-8.022328832987151,"CC(C)CCCCCCCCCCOC(=O)c1ccccc1C(=O)OCCCCCCCCCCC(C)C",10.333999999999994,52.60000000000001,530.4335103359999,4,0,24,0,4,0,4,38,96,0,1,1,0,0,0,0,0,1,0,0,0.7647058823529411
"A-2572","diisotridecyl adipate",-5.7082882968,"CC(C)CCCCCCCCCCOC(=O)CCCCC(=O)OCCCCCCCCCCC(C)C","CC(C)CCCCCCCCCCOC(=O)CCCCC(=O)OCCCCCCCCCCC(C)C",-19.091089112854817,"CC(C)CCCCCCCCCCOC(=O)CCCCC(=O)OCCCCCCCCCCC(C)C",9.966999999999999,52.60000000000001,510.4648104639999,4,0,27,0,4,0,4,36,98,0,0,0,0,0,0,0,0,0,0,0,0.9375
"A-2573","docosan-1-ol",-5.5140281479,"CCCCCCCCCCCCCCCCCCCCCCO","CCCCCCCCCCCCCCCCCCCCCCO",0.47854866864841383,"CCCCCCCCCCCCCCCCCCCCCCO",7.800600000000008,20.23,326.35486609199995,1,1,20,1,1,0,1,23,69,0,0,0,0,0,0,0,0,0,0,0,1
"A-2574","dodecyl 3-{[3-(dodecyloxy)-3-oxopropyl]sulfanyl}propanoate",-5.7116866218,"CCCCCCCCCCCCOC(=O)CCSCCC(=O)OCCCCCCCCCCCC","CCCCCCCCCCCCOC(=O)CCSCCC(=O)OCCCCCCCCCCCC",-35.61443734353985,"CCCCCCCCCCCCOC(=O)CCSCCC(=O)OCCCCCCCCCCCC",9.428,52.60000000000001,514.405581336,4,0,28,0,5,0,5,35,93,0,0,0,0,0,0,0,0,0,0,0,0.9333333333333333
"A-2575","ethyl 4-[[(methylphenylamino)methylene]amino]benzoate",-5.4507770249,"CCOC(=O)c1ccc([NH+]=CN(C)c2ccccc2)cc1","CCOC(=O)c1ccc([NH+]=CN(C)c2ccccc2)cc1",26.096006533109076,"CCOC(=O)c1ccc([NH+]=CN(C)c2ccccc2)cc1",1.7400999999999995,43.510000000000005,283.14410426809,4,1,5,1,2,0,4,21,40,0,2,2,0,0,0,0,0,2,0,0,0.17647058823529413
"A-2577","hexadecyl hexadecyloxy dicarbonate",-5.7565570001,"CCCCCCCCCCCCCCCCOC(=O)OOC(=O)OCCCCCCCCCCCCCCCC","CCCCCCCCCCCCCCCCOC(=O)OOC(=O)OCCCCCCCCCCCCCCCC",-27.486410338554357,"CCCCCCCCCCCCCCCCOC(=O)OOC(=O)OCCCCCCCCCCCCCCCC",12.170399999999983,71.06,570.485939832,6,0,30,0,6,0,6,40,106,0,0,0,0,0,0,0,0,0,0,0,0.9411764705882353
"A-2582","icosan-1-ol",-5.4750243489,"CCCCCCCCCCCCCCCCCCCCO","CCCCCCCCCCCCCCCCCCCCO",0.8878316826695937,"CCCCCCCCCCCCCCCCCCCCO",7.020400000000008,20.23,298.323565964,1,1,18,1,1,0,1,21,63,0,0,0,0,0,0,0,0,0,0,0,1
"A-2584","octadecan-1-ol",-5.432168875,"CCCCCCCCCCCCCCCCCCO","CCCCCCCCCCCCCCCCCCO",-1.5691468294395043,"CCCCCCCCCCCCCCCCCCO",6.240200000000008,20.23,270.292265836,1,1,16,1,1,0,1,19,57,0,0,0,0,0,0,0,0,0,0,0,1
"A-2586","propan-2-yl dodecanoate",-5.3845379904,"CCCCCCCCCCCC(=O)OC(C)C","CCCCCCCCCCCC(=O)OC(C)C",-11.249502280456806,"CCCCCCCCCCCC(=O)OC(C)C",4.858900000000005,26.3,242.2245802,2,0,11,0,2,0,2,17,47,0,0,0,0,0,0,0,0,0,0,0,0.9333333333333333
"A-2587","tetracosan-1-ol",-5.5498158833,"CCCCCCCCCCCCCCCCCCCCCCCCO","CCCCCCCCCCCCCCCCCCCCCCCCO",-2.178107195197769,"CCCCCCCCCCCCCCCCCCCCCCCCO",8.580800000000004,20.23,354.38616621999995,1,1,22,1,1,0,1,25,75,0,0,0,0,0,0,0,0,0,0,0,1
"A-2589","undec-3-ene",-5.1883574821,"CCC=CCCCCCCC","CCC=CCCCCCCC",-0.40473517690395333,"CCC=CCCCCCCC",4.313100000000003,0,154.172150704,0,0,7,0,0,0,0,11,33,0,0,0,0,0,0,0,0,0,0,0,0.8181818181818182
"A-2590","vinyl laurate",-5.3547996853,"C=COC(=O)CCCCCCCCCCC","C=COC(=O)CCCCCCCCCCC",1.351424885668394,"C=COC(=O)CCCCCCCCCCC",4.594000000000005,26.3,226.193280072,2,0,11,0,2,0,2,16,42,0,0,0,0,0,0,0,0,0,0,0,0.7857142857142857
"A-2593","2-[3-(heptan-3-yl)-1,2-oxazolidin-2-yl]ethyl N-{6-[({2-[3-(heptan-3-yl)-1,2-oxazolidin-2-yl]ethoxy}carbonyl)amino]hexyl}carbamate",-5.7905608237,"CCCCC(CC)C1CCON1CCOC(=O)NCCCCCCNC(=O)OCCN1OCCC1C(CC)CCCC","CCCCC(CC)C1CCON1CCOC(=O)NCCCCCCNC(=O)OCCN1OCCC1C(CC)CCCC",-16.138345762887948,"CCCCC(CC)C1CCON1CCOC(=O)NCCCCCCNC(=O)OCCN1OCCC1C(CC)CCCC",6.443800000000007,101.60000000000001,598.4669357040001,10,2,23,2,8,2,10,42,104,4,2,0,2,2,0,2,2,0,0,0,0.9375
"A-2594","methyl 3-[3-(benzotriazol-2-yl)-5-tert-butyl-4-hydroxyphenyl]propanoate",-6.8493235759,"COC(=O)CCc1cc(-n2nc3ccccc3n2)c(O)c(C(C)(C)C)c1","COC(=O)CCc1cc(-n2nc3ccccc3n2)c(O)c(C(C)(C)C)c1",35.4083760896973,"COC(=O)CCc1cc(n2nc3ccccc3n2)c(O)c(C(C)(C)C)c1",3.529200000000002,77.24000000000001,353.173941596,6,1,4,1,6,0,6,26,49,0,3,3,0,0,1,0,0,2,0,0,0.35
"A-2595","3-octadecyl-1-[4-({4-[(octadecylcarbamoyl)amino]phenyl}methyl)phenyl]urea",-5.9429946413,"CCCCCCCCCCCCCCCCCCNC(=O)Nc1ccc(Cc2ccc(NC(=O)NCCCCCCCCCCCCCCCCCC)cc2)cc1","CCCCCCCCCCCCCCCCCCNC(=O)Nc1ccc(Cc2ccc(NC(=O)NCCCCCCCCCCCCCCCCCC)cc2)cc1",-10.184336668766191,"CCCCCCCCCCCCCCCCCCNC(=O)Nc1ccc(Cc2ccc(NC(=O)NCCCCCCCCCCCCCCCCCC)cc2)cc1",16.043399999999966,82.26,788.690728056,6,4,38,4,2,4,6,57,145,0,2,2,0,0,0,0,0,2,0,0,0.7254901960784313
"A-2596","2,5,7,8-tetramethyl-2-(4,8,12-trimethyltridecyl)-3,4-dihydro-2H-1-benzopyran-6-yl acetate",-5.7715452251,"CC(=O)Oc1c(C)c(C)c2c(c1C)CC[C@@](C)(CCC[C@H](C)CCC[C@H](C)CCCC(C)C)O2","CC(=O)Oc1c(C)c(C)c2c(c1C)CC[C@@](C)(CCC[C@H](C)CCC[C@H](C)CCCC(C)C)O2",42.33442462876501,"CC(=O)Oc1c(C)c(C)c2c(c1C)CC[C@@](C)(CCC[C@H](C)CCC[C@H](C)CCCC(C)C)O2",9.059960000000002,35.53,472.39164552399996,3,0,13,0,3,0,3,34,86,3,2,1,0,1,0,0,1,1,0,0,0.7741935483870968
"A-2598","[1,3(or 1,4)-phenylenebis(1-methylethylidene)]bis[tert-butyl] peroxide",-5.7371515873,"CC(C)(C)OOC(C)(C)c1ccc(C(C)(C)OOC(C)(C)C)cc1","CC(C)(C)OOC(C)(C)c1ccc(C(C)(C)OOC(C)(C)C)cc1",52.6802748962579,"CC(C)(C)OOC(C)(C)c1ccc(C(C)(C)OOC(C)(C)C)cc1",5.650200000000006,36.92,338.245709568,4,0,6,0,4,0,4,24,58,0,1,1,0,0,0,0,0,1,0,0,0.7
"A-2601","1,1'-disulfanediyldioctadecane",-6.0577588855,"CCCCCCCCCCCCCCCCCCSSCCCCCCCCCCCCCCCCCC","CCCCCCCCCCCCCCCCCCSSCCCCCCCCCCCCCCCCCC",-8.27909740110948,"CCCCCCCCCCCCCCCCCCSSCCCCCCCCCCCCCCCCCC",14.890799999999963,0,570.523194368,0,0,35,0,2,0,2,38,112,0,0,0,0,0,0,0,0,0,0,0,1
"A-2602","2-decyltetradecanoic acid",-5.8676395216,"CCCCCCCCCCCCC(CCCCCCCCCC)C(=O)[O-]","CCCCCCCCCCCCC(CCCCCCCCCC)C(=O)[O-]",10.557540382887547,"CCCCCCCCCCCCC(CCCCCCCCCC)C(=O)[O-]",7.194300000000008,40.129999999999995,367.35815432390996,2,0,21,0,2,0,2,26,73,1,0,0,0,0,0,0,0,0,0,0,0.9583333333333334
"A-2606","N-(2-ethoxyphenyl)-N'-[4-(10-methylundecyl)phenyl]ethanediamide",-6.0994494699,"CCOc1ccccc1NC(=O)C(=O)Nc1ccc(CCCCCCCCCC(C)C)cc1","CCOc1ccccc1NC(=O)C(=O)Nc1ccc(CCCCCCCCCC(C)C)cc1",83.31380318379527,"CCOc1ccccc1NC(=O)C(=O)Nc1ccc(CCCCCCCCCC(C)C)cc1",6.981800000000008,67.42999999999999,452.30389314,5,2,14,2,3,2,5,33,73,0,2,2,0,0,0,0,0,2,0,0,0.5
"A-2608","2-ethylhexyl 3,5,5-trimethylhexanoate",-5.9549769717,"CCCCC(CC)COC(=O)CC(C)CC(C)(C)C","CCCCC(CC)COC(=O)CC(C)CC(C)(C)C",-0.7820901299885086,"CCCCC(CC)COC(=O)CC(C)CC(C)(C)C",5.2084000000000055,26.3,270.255880328,2,0,9,0,2,0,2,19,53,2,0,0,0,0,0,0,0,0,0,0,0.9411764705882353
"A-2610","heptyl 3-[3-(2H-1,2,3-benzotriazol-2-yl)-5-tert-butyl-4-hydroxyphenyl]propanoate nonyl 3-[3-(2H-1,2,3-benzotriazol-2-yl)-5-tert-butyl-4-hydroxyphenyl]propanoate octyl 3-[3-(2H-1,2,3-benzotriazol-2-yl)-5-tert-butyl-4-hydroxyphenyl]propanoate",-6.1639401792,"CCC(C)CCCOC(=O)CCc1cc(-n2nc3ccccc3n2)c(O)c(C(C)(C)C)c1","CCC(C)CCCOC(=O)CCc1cc(-n2nc3ccccc3n2)c(O)c(C(C)(C)C)c1",39.07931542444842,"CCC(C)CCCOC(=O)CCc1cc(n2nc3ccccc3n2)c(O)c(C(C)(C)C)c1",5.725700000000007,77.24000000000001,437.26784198,6,1,9,1,6,0,6,32,67,1,3,3,0,0,1,0,0,2,0,0,0.5
"A-2614","4-[(4-hydroxy-9,10-dioxo-9,10-dihydroanthracen-1-yl)amino]phenyl methanesulfonate",-6.2142279845,"CS(=O)(=O)Oc1ccc(Nc2ccc([O-])c3c2C(=O)c2ccccc2C3=O)cc1","CS(=O)(=O)Oc1ccc(Nc2ccc([O-])c3c2C(=O)c2ccccc2C3=O)cc1",86.72328403196342,"CS(=O)(=O)Oc1ccc(Nc2ccc([O-])c3c2C(=O)c2ccccc2C3=O)cc1",2.6176000000000004,112.6,408.05473174790995,7,1,4,1,7,0,8,29,43,0,4,3,0,1,0,0,0,3,0,1,0.047619047619047616
"A-2617","4-(2-{3-[2-(4-hydroxyphenyl)propan-2-yl]phenyl}propan-2-yl)phenol",-6.2386356404,"CC(Cc1cccc(CC(C)c2ccc(O)cc2)c1)c1ccc(O)cc1","CC(Cc1cccc(CC(C)c2ccc(O)cc2)c1)c1ccc(O)cc1",53.1940477630642,"CC(Cc1cccc(CC(C)c2ccc(O)cc2)c1)c1ccc(O)cc1",5.790200000000007,40.46,346.193280072,2,2,6,2,2,0,2,26,52,2,3,3,0,0,0,0,0,3,0,0,0.25
"A-2618","N-(3-methylphenyl)-4-{4-[(3-methylphenyl)(phenyl)amino]phenyl}-N-phenylaniline",-6.4121983796,"Cc1cccc(N(c2ccccc2)c2ccc(-c3ccc(N(c4ccccc4)c4cccc(C)c4)cc3)cc2)c1","Cc1cccc(N(c2ccccc2)c2ccc(-c3ccc(N(c4ccccc4)c4cccc(C)c4)cc3)cc2)c1",146.5189958943484,"Cc1cccc(N(c2ccccc2)c2ccc(c3ccc(N(c4ccccc4)c4cccc(C)c4)cc3)cc2)c1",10.910039999999988,6.48,516.256549024,2,0,7,0,2,0,2,40,72,0,6,6,0,0,0,0,0,6,0,0,0.05263157894736842
"A-2619","N-methyl-N-phenyl{[methyl(phenyl)carbamothioyl]disulfanyl}carbothioamide",-6.2607699922,"CN(C(=S)SSC(=S)N(C)c1ccccc1)c1ccccc1","CN(C(=S)SSC(=S)N(C)c1ccccc1)c1ccccc1",42.327122878904156,"CN(C(=S)SSC(=S)N(C)c1ccccc1)c1ccccc1",5.2104000000000035,6.48,364.019632512,2,0,2,0,4,0,6,22,38,0,2,2,0,0,0,0,0,2,0,0,0.125
"A-2620","N-{2-[(2-cyano-4,6-dinitrophenyl)diazenyl]-5-(diethylamino)phenyl}acetamide",-6.3277725944,"CCN(CC)c1ccc(N=Nc2c(C#N)cc([N+](=O)[O-])cc2[N+](=O)[O-])c(NC(C)=O)c1","CCN(CC)c1ccc(N=Nc2c(C#N)cc([N+](=O)[O-])cc2[N+](=O)[O-])c(NC(C)=O)c1",50.56943371866938,"CCN(CC)c1ccc(N=Nc2c(C#N)cc([N+](=O)[O-])cc2[N+](=O)[O-])c(NC(=O)C)c1",4.594680000000004,167.13,425.14476670799996,12,1,8,1,9,1,12,31,50,0,2,2,0,0,0,0,0,2,0,0,0.2631578947368421
"A-2622","Sorbitan monolaurate, ethoxylated",-6.4172025632,"CCCCCCCCCCCC(=O)OCCOCC(OCCO)C1OCC(OCCO)C1OCCO","CCCCCCCCCCCC(=O)OCCOCC(OCCO)C1OCC(OCCO)C1OCCO",116.45818757089671,"CCCCCCCCCCCC(=O)OCCOCC(OCCO)C1OCC(OCCO)C1OCCO",1.9984000000000006,133.14000000000001,522.3403977999999,10,3,25,3,10,0,10,36,86,4,1,0,1,1,0,1,1,0,0,0,0.9615384615384616
"A-2623","16-methylheptadecan-1-ol",-6.2560776159,"CC(C)CCCCCCCCCCCCCCCO","CC(C)CCCCCCCCCCCCCCCO",3.3719730057320927,"CC(C)CCCCCCCCCCCCCCCO",6.096100000000007,20.23,270.292265836,1,1,15,1,1,0,1,19,57,0,0,0,0,0,0,0,0,0,0,0,1