"ID","Name","Solubility","SMILES Canonical","Smiles (Optimized Geometry)","Energy","Smiles","SlogP","TPSA","ExactMW","NumLipinskiHBA","NumLipinskiHBD","NumRotatableBonds","NumHBD","NumHBA","NumAmideBonds","NumHeteroAtoms","NumHeavyAtoms","NumAtoms","NumStereocenters","NumRings","NumAromaticRings","NumSaturatedRings","NumAliphaticRings","NumAromaticHeterocycles","NumSaturatedHeterocycles","NumAliphaticHeterocycles","NumAromaticCarbocycles","NumSaturatedCarbocycles","NumAliphaticCarbocycles","FractionCSP3"
"B-883","thionazin",-2.338,"CCOP(=S)(OCC)Oc1cnccn1","CCOP(=S)(OCC)Oc1cnccn1",-18.70873304005982,"CCOP(=S)(OCC)Oc1cnccn1",2.1529,53.47,248.03844990599998,5,0,6,0,6,0,7,15,28,0,1,1,0,0,1,0,0,0,0,0,0.5
"B-886","demeton-o",-3.634,"CCOP(=S)(OCC)OCCSCC","CCOP(=S)(OCC)OCCSCC",-79.10990519782268,"CCOP(=S)(OCC)OCCSCC",3.053600000000001,27.69,258.051323098,3,0,9,0,5,0,6,14,33,0,0,0,0,0,0,0,0,0,0,0,1
"B-893","oxydemeton methyl",0.6086,"CCS(=O)CCSP(=O)(OC)OC","CCS(=O)CCSP(=O)(OC)OC",-83.51250607171227,"CCS(=O)CCSP(=O)(OC)OC",1.8890999999999998,52.60000000000001,246.01493759,4,0,7,0,5,0,7,13,28,1,0,0,0,0,0,0,0,0,0,0,1
"B-897","meparfynol carbamate",-0.9456,"C#CC(C)(CC)OC(N)=O","C#CC(C)(CC)OC(N)=O",-17.431222698252867,"C#CC(C)(CC)OC(=O)N",0.8835999999999999,52.32,141.078978592,3,2,2,1,2,1,3,10,21,1,0,0,0,0,0,0,0,0,0,0,0.5714285714285714
"B-907","mexacarbate",-3.3469,"CNC(=O)Oc1cc(C)c(N(C)C)c(C)c1","CNC(=O)Oc1cc(C)c(N(C)C)c(C)c1",7.019422418420338,"CNC(=O)Oc1cc(C)c(N(C)C)c(C)c1",2.08764,41.57,222.136827816,4,1,2,1,3,1,4,16,34,0,1,1,0,0,0,0,0,1,0,0,0.4166666666666667
"B-908","isoleucine",-0.5033,"CCC(C)C([NH3+])C(=O)[O-]","CCC(C)C([NH3+])C(=O)[O-]",-61.90466147446566,"CCC(C)C([NH3+])C(=O)[O-]",-1.6070999999999982,67.77,131.094628656,3,3,3,1,2,0,3,9,22,2,0,0,0,0,0,0,0,0,0,0,0.8333333333333334
"B-910","1-fluoronaphthalene",-3.4527,"Fc1cccc2ccccc12","Fc1cccc2ccccc12",26.413764225687032,"Fc1cccc2ccccc12",2.978900000000001,0,146.053178444,0,0,0,0,0,0,1,11,18,0,2,2,0,0,0,0,0,2,0,0,0
"B-911","acetamide, n-(4-fluoro-2-methylphenyl)-",-1.3593,"CC(=O)Nc1ccc(F)cc1C","CC(=O)Nc1ccc(F)cc1C",16.175891420242156,"CC(=O)Nc1ccc(F)cc1C",2.0925199999999995,29.1,167.07464216,2,1,1,1,1,1,3,12,22,0,1,1,0,0,0,0,0,1,0,0,0.2222222222222222
"B-912","acetamide, n-(2-fluoro-4-methylphenyl)-",-1.7403,"CC(=O)Nc1ccc(C)cc1F","CC(=O)Nc1ccc(C)cc1F",16.3094014000175,"CC(=O)Nc1ccc(C)cc1F",2.0925199999999995,29.1,167.07464216,2,1,1,1,1,1,3,12,22,0,1,1,0,0,0,0,0,1,0,0,0.2222222222222222
"B-913","1,2,4,5-tetrafluorobenzene",-2.3757,"Fc1cc(F)c(F)cc1F","Fc1cc(F)c(F)cc1F",14.175981606254492,"Fc1cc(F)c(F)cc1F",2.2430000000000003,0,150.009262944,0,0,0,0,0,0,4,10,12,0,1,1,0,0,0,0,0,1,0,0,0
"B-914","a-aminocaproic acid",-1.0387,"CCCC[C@H]([NH3+])C(=O)[O-]","CCCC[C@H]([NH3+])C(=O)[O-]",-65.89843702002496,"CCCC[C@H]([NH3+])C(=O)[O-]",-1.4629999999999983,67.77,131.094628656,3,3,4,1,2,0,3,9,22,1,0,0,0,0,0,0,0,0,0,0,0.8333333333333334
"B-915","chlorogenic acid",-0.9473,"O=C(C=Cc1ccc(O)c(O)c1)O[C@@H]1C[C@](O)(C(=O)[O-])C[C@@H](O)[C@H]1O","O=C(C=Cc1ccc(O)c(O)c1)O[C@@H]1C[C@](O)(C(=O)[O-])C[C@@H](O)[C@H]1O",59.82281088753838,"O=C(C=Cc1ccc(O)c(O)c1)O[C@@H]1C[C@](O)(C(=O)[O-])C[C@@H](O)[C@H]1O",-1.980600000000001,167.57999999999998,353.08780570390996,9,5,4,5,9,0,9,25,42,4,2,1,1,1,0,0,0,1,1,1,0.375
"B-916","leucine",-1.0456,"CC(C)CC([NH3+])C(=O)[O-]","CC(C)CC([NH3+])C(=O)[O-]",-64.59632387454157,"CC(C)CC([NH3+])C(=O)[O-]",-1.6070999999999982,67.77,131.094628656,3,3,3,1,2,0,3,9,22,1,0,0,0,0,0,0,0,0,0,0,0.8333333333333334
"B-917","cyclohexyl methylphosphonofluoridate",-1.6875,"CP(=O)(F)OC1CCCCC1","CP(=O)(F)OC1CCCCC1",-5.325432508731013,"CP(=O)(F)OC1CCCCC1",3.1281000000000017,26.3,180.071544538,2,0,2,0,2,0,4,11,25,1,1,0,1,1,0,0,0,0,1,1,1
"B-925","l-histidine, 3-methyl-",0.0727,"Cn1cncc1C[C@H]([NH3+])C(=O)[O-]","Cn1cncc1C[C@H]([NH3+])C(=O)[O-]",-82.96963212154577,"Cn1cncc1C[C@H]([NH3+])C(=O)[O-]",-2.6769999999999987,85.59,169.085126592,5,3,3,1,4,0,5,12,23,1,1,1,0,0,1,0,0,0,0,0,0.42857142857142855
"B-928","isopestox",-0.3574,"CC(C)NP(=O)(F)NC(C)C","CC(C)NP(=O)(F)NC(C)C",-55.30942582309776,"CC(C)NP(=O)(F)NC(C)C",2.0599999999999996,41.13,182.098427982,3,2,4,2,1,0,5,11,27,0,0,0,0,0,0,0,0,0,0,0,1
"B-930","1,1,1-trifluoro-2-propanol",0.3094,"CC(O)C(F)(F)F","CC(O)C(F)(F)F",26.61723404409966,"CC(O)C(F)(F)F",0.9295,20.23,114.02924944,1,1,0,1,1,0,4,7,12,1,0,0,0,0,0,0,0,0,0,0,1
"B-933","andrenosterone",-3.4843,"C[C@]12CC(=O)[C@H]3[C@@H](CCC4=CC(=O)CC[C@@]43C)[C@@H]1CCC2=O","C[C@]12CC(=O)[C@H]3[C@@H](CCC4=CC(=O)CC[C@@]43C)[C@@H]1CCC2=O",42.36546530208186,"C[C@]12CC(=O)[C@H]3[C@@H](CCC4=CC(=O)CC[C@]34C)[C@@H]1CCC2=O",3.2664000000000017,51.21,300.17254462799997,3,0,0,0,3,0,3,22,46,5,4,0,3,4,0,0,0,0,3,4,0.7368421052631579
"B-935","4-fluoro-2-propyl-phenol",-1.887,"CCCc1cc(F)ccc1O","CCCc1cc(F)ccc1O",16.00131816224807,"CCCc1cc(F)ccc1O",2.483800000000001,20.23,154.079393192,1,1,2,1,1,0,2,11,22,0,1,1,0,0,0,0,0,1,0,0,0.3333333333333333
"B-936","nidroxyzone",-2.6852,"NC(=O)N(CCO)N=Cc1ccc([N+](=O)[O-])o1","NC(=O)N(CCO)N=Cc1ccc([N+](=O)[O-])o1",78.7526351424929,"NC(=O)N(CCO)N=Cc1ccc([N+](=O)[O-])o1",-0.10529999999999967,135.2,242.06511942,9,3,5,2,6,2,9,17,27,0,1,1,0,0,1,0,0,0,0,0,0.25
"B-938","benzoic acid, 2-(trifluoromethyl)-",-1.5978,"O=C([O-])c1ccccc1C(F)(F)F","O=C([O-])c1ccccc1C(F)(F)F",17.08337179391649,"O=C([O-])c1ccccc1C(F)(F)F",1.0689,40.129999999999995,189.01688760791,2,0,1,0,2,0,5,13,17,0,1,1,0,0,0,0,0,1,0,0,0.125
"B-939","ethisterone",-5.6576,"C#C[C@]1(O)CC[C@H]2[C@@H]3CCC4=CC(=O)CC[C@]4(C)[C@H]3CC[C@@]21C","C#C[C@]1(O)CC[C@H]2[C@@H]3CCC4=CC(=O)CC[C@]4(C)[C@H]3CC[C@@]21C",58.84239569109074,"C#C[C@]1(O)CC[C@H]2[C@@H]3CCC4=CC(=O)CC[C@]4(C)[C@H]3CC[C@]12C",3.8826000000000036,37.3,312.208930136,2,1,0,1,2,0,2,23,51,6,4,0,3,4,0,0,0,0,3,4,0.7619047619047619
"B-941","nandrolone",-1.9484,"C[C@]12CC[C@@H]3[C@H]4CCC(=O)C=C4CC[C@H]3[C@@H]1CC[C@@H]2O","C[C@]12CC[C@@H]3[C@H]4CCC(=O)C=C4CC[C@H]3[C@@H]1CC[C@@H]2O",50.29287862828712,"C[C@]12CC[C@@H]3[C@H]4CCC(=O)C=C4CC[C@H]3[C@@H]1CC[C@@H]2O",3.4891000000000028,37.3,274.193280072,2,1,0,1,2,0,2,20,46,6,4,0,3,4,0,0,0,0,3,4,0.8333333333333334
"B-945","dl-isoleucine",-0.7875,"CC[C@H](C)[C@@H]([NH3+])C(=O)[O-]","CC[C@H](C)[C@@H]([NH3+])C(=O)[O-]",-62.409385998151755,"CC[C@H](C)[C@@H]([NH3+])C(=O)[O-]",-1.6070999999999982,67.77,131.094628656,3,3,3,1,2,0,3,9,22,2,0,0,0,0,0,0,0,0,0,0,0.8333333333333334
"B-946","benzeneacetic acid, 2,5-dihydroxy-",0.7037,"O=C([O-])Cc1cc(O)ccc1O","O=C([O-])Cc1cc(O)ccc1O",35.76225897177386,"O=C([O-])Cc1cc(O)ccc1O",-0.6098000000000006,80.59,167.03498228391,4,2,2,2,4,0,4,12,19,0,1,1,0,0,0,0,0,1,0,0,0.125
"B-947","1h-purin-2-amine",-1.21,"Nc1ncc2[nH]cnc2n1","Nc1ncc2[nH]cnc2n1",-60.58745939948835,"Nc1ncc2[nH]cnc2n1",-0.06490000000000012,80.48,135.05449516,5,3,0,2,4,0,5,10,15,0,2,2,0,0,2,0,0,0,0,0,0
"B-949","benzoic acid, 4-fluoro-3-nitro-",-1.5809,"O=C([O-])c1ccc(F)c([N+](=O)[O-])c1","O=C([O-])c1ccc(F)c([N+](=O)[O-])c1",13.707810160056834,"O=C([O-])c1ccc(F)c([N+](=O)[O-])c1",0.09739999999999982,83.27,184.00515937591,5,0,2,0,4,0,6,13,16,0,1,1,0,0,0,0,0,1,0,0,0
"B-951","2-propylpiperidine",-0.8493,"CCC[C@H]1CCCC[NH2+]1","CCC[C@H]1CCCC[NH2+]1",8.782708457909747,"CCC[C@H]1CCCC[NH2+]1",0.9024000000000001,16.61,128.14337599609,1,2,2,1,0,0,1,9,27,1,1,0,1,1,0,1,1,0,0,0,1
"B-955","n-(aminocarbonyl)glycine",-0.5809,"NC(=O)NCC(=O)[O-]","NC(=O)NCC(=O)[O-]",23.379798979380134,"NC(=O)NCC(=O)[O-]",-2.5953999999999997,95.25,117.03056559991,5,3,2,2,3,2,5,8,13,0,0,0,0,0,0,0,0,0,0,0,0.3333333333333333
"B-956",".beta.-alanine, n-(aminocarbonyl)-",-0.8014,"NC(=O)NCCC(=O)[O-]","NC(=O)NCCC(=O)[O-]",-31.779048584712825,"NC(=O)NCCC(=O)[O-]",-2.2052999999999994,95.25,131.04621566391,5,3,3,2,3,2,5,9,16,0,0,0,0,0,0,0,0,0,0,0,0.5
"B-957","d-borneol",-2.319,"CC1(C)C2CCC1(C)[C@@H](O)C2","CC1(C)C2CCC1(C)[C@@H](O)C2",39.92678386490616,"CC1(C)C2CCC1(C)[C@@H](O)C2",2.1935000000000002,20.23,154.135765196,1,1,0,1,1,0,1,11,29,3,2,0,2,2,0,0,0,0,2,2,1
"B-959","quinamine",-2.6706,"C=C[C@H]1C[NH+]2CC[C@H]1C[C@H]2[C@@]12Nc3ccccc3[C@]1(O)CCO2","C=C[C@H]1C[NH+]2CC[C@H]1C[C@H]2[C@@]12Nc3ccccc3[C@]1(O)CCO2",85.38395406500834,"C=C[C@H]1C[NH+]2CC[C@H]1C[C@H]2[C@@]12Nc3ccccc3[C@]1(O)CCO2",0.8955999999999991,45.93000000000001,313.19105446009,4,3,2,3,3,0,4,23,48,6,6,1,4,5,0,4,5,1,0,0,0.5789473684210527
"B-960","aspidospermine",-1.3269,"CC[C@@]12CCC[NH+]3CC[C@]4(c5cccc(OC)c5N(C(C)=O)[C@@H]4CC1)[C@H]32","CC[C@@]12CCC[NH+]3CC[C@]4(c5cccc(OC)c5N(C(C)=O)[C@@H]4CC1)[C@H]32",60.53704403264403,"CC[C@@]12CCC[NH+]3CC[C@]4(c5cccc(OC)c5N(C(=O)C)[C@@H]4CC1)[C@@H]23",2.3093000000000004,33.980000000000004,355.23800465209,4,1,2,1,2,1,4,26,57,5,5,1,3,4,0,2,3,1,1,1,0.6818181818181818
"B-961","flurenol",-1.9657,"O=C([O-])C1(O)c2ccccc2-c2ccccc21","O=C([O-])C1(O)c2ccccc2-c2ccccc21",134.87090277106606,"O=C([O-])C1(O)c2ccccc2c2ccccc12",0.6527999999999998,60.36,225.05571772790998,3,1,1,1,3,0,3,17,26,0,3,2,0,1,0,0,0,2,0,1,0.07142857142857142
"B-962","propoxyphene",-5.0097,"CCC(=O)O[C@](Cc1ccccc1)(c1ccccc1)[C@H](C)C[NH+](C)C","CCC(=O)O[C@](Cc1ccccc1)(c1ccccc1)[C@H](C)C[NH+](C)C",23.6509036313926,"CCC(=O)O[C@](Cc1ccccc1)(c1ccccc1)[C@H](C)C[NH+](C)C",2.8584000000000005,30.740000000000002,340.22710562009,3,1,8,1,2,0,3,25,55,2,2,2,0,0,0,0,0,2,0,0,0.4090909090909091
"B-966","thiazolsulfone",-2.805,"Nc1ccc(S(=O)(=O)c2cnc(N)s2)cc1","Nc1ccc(S(=O)(=O)c2cnc(N)s2)cc1",1.2991650808475443,"Nc1ccc(S(=O)(=O)c2cnc(N)s2)cc1",1.1403,99.07000000000001,255.013618528,5,4,2,2,6,0,7,16,25,0,2,2,0,0,1,0,0,1,0,0,0
"B-968","cyclobutaneacetic acid, 3-acetyl-2,2-dimethyl-",-0.5752,"CC(=O)C1CC(CC(=O)[O-])C1(C)C","CC(=O)C1CC(CC(=O)[O-])C1(C)C",2.9175200236445034,"CC(=O)C1CC(CC(=O)[O-])C1(C)C",0.3776999999999997,57.2,183.10266791991,3,0,3,0,3,0,3,13,28,2,1,0,1,1,0,0,0,0,1,1,0.8
"B-970","equilin",-5.2795,"C[C@]12CC[C@H]3C(=CCc4cc(O)ccc43)[C@@H]1CCC2=O","C[C@]12CC[C@H]3C(=CCc4cc(O)ccc43)[C@@H]1CCC2=O",52.99409699992608,"C[C@]12CC[C@H]3C(=CCc4cc(O)ccc34)[C@@H]1CCC2=O",3.7375000000000025,37.3,268.14632988,2,1,0,1,2,0,2,20,40,3,4,1,2,3,0,0,0,1,2,3,0.5
"B-971","hematein",-2.6994,"O=C1C=C2CC3(O)COc4c(ccc(O)c4O)C3=C2C=C1O","O=C1C=C2CC3(O)COc4c(ccc(O)c4O)C3=C2C=C1O",87.3526427898542,"O=C1C=C2CC3(O)COc4c(ccc(O)c4O)C3=C2C=C1O",1.3295999999999997,107.22000000000001,300.063388104,6,4,0,4,6,0,6,22,34,1,4,1,0,3,0,0,1,1,0,2,0.1875
"B-973","picropodophyllin",-3.6174,"COc1cc([C@@H]2c3cc4c(cc3[C@H](O)[C@H]3COC(=O)[C@@H]23)OCO4)cc(OC)c1OC","COc1cc([C@@H]2c3cc4c(cc3[C@H](O)[C@H]3COC(=O)[C@@H]23)OCO4)cc(OC)c1OC",50.92022054468739,"COc1cc([C@@H]2c3cc4c(cc3[C@H](O)[C@H]3COC(=O)[C@@H]23)OCO4)cc(OC)c1OC",2.4092000000000002,92.68,414.1314676639999,8,1,4,1,8,0,8,30,52,4,5,2,1,3,0,1,2,2,0,1,0.4090909090909091
"B-976","cholanthrene",-7.8613,"c1cc2c3c(c4ccc5ccccc5c4cc3c1)CC2","c1cc2c3c(c4ccc5ccccc5c4cc3c1)CC2",66.60493295339056,"c1cc2c3c(c4ccc5ccccc5c4cc3c1)CC2",5.244800000000003,0,254.109550448,0,0,0,0,0,0,0,20,34,0,5,4,0,1,0,0,0,4,0,1,0.1
"B-978","tetryl",-3.5889,"CN(c1c([N+](=O)[O-])cc([N+](=O)[O-])cc1[N+](=O)[O-])[N+](=O)[O-]","CN(c1c([N+](=O)[O-])cc([N+](=O)[O-])cc1[N+](=O)[O-])[N+](=O)[O-]",36.106470140145476,"CN(c1c([N+](=O)[O-])cc([N+](=O)[O-])cc1[N+](=O)[O-])[N+](=O)[O-]",1.0390999999999997,175.79999999999998,287.01381212,13,0,5,0,8,0,13,20,25,0,1,1,0,0,0,0,0,1,0,0,0.14285714285714285
"B-981","2,4,6-trimethylbenzoic acid",-2.3566,"Cc1cc(C)c(C(=O)[O-])c(C)c1","Cc1cc(C)c(C(=O)[O-])c(C)c1",33.131567674550865,"Cc1cc(C)c(C(=O)[O-])c(C)c1",0.97536,40.129999999999995,163.07645317191,2,0,1,0,2,0,2,12,23,0,1,1,0,0,0,0,0,1,0,0,0.3
"B-982","benzoic acid, 2,6-dihydroxy-4-methyl-",-2.0496,"Cc1cc(O)c(C(=O)[O-])c(O)c1","Cc1cc(O)c(C(=O)[O-])c(O)c1",18.45574268326222,"Cc1cc(O)c(C(=O)[O-])c(O)c1",-0.23028000000000015,80.59,167.03498228391,4,2,1,2,4,0,4,12,19,0,1,1,0,0,0,0,0,1,0,0,0.125
"B-983","2,4,6(1h,3h,5h)-pyrimidinetrione, 5-nitro-",-2.284,"O=C1NC(=O)C([N+](=O)[O-])C(=O)N1","O=C1NC(=O)C([N+](=O)[O-])C(=O)N1",-106.96825877636711,"O=C1NC(=O)C([N+](=O)[O-])C(=O)N1",-2.0023,118.41,173.007270196,8,2,1,2,5,4,8,12,15,0,1,0,1,1,0,1,1,0,0,0,0.25
"B-984","santonin",-3.0905,"CC1=C2[C@H]3OC(=O)[C@@H](C)[C@@H]3CC[C@@]2(C)C=CC1=O","CC1=C2[C@H]3OC(=O)[C@@H](C)[C@@H]3CC[C@@]2(C)C=CC1=O",17.125264115373533,"CC1=C2[C@H]3OC(=O)[C@@H](C)[C@@H]3CC[C@@]2(C)C=CC1=O",2.419600000000001,43.370000000000005,246.125594436,3,0,0,0,3,0,3,18,36,4,3,0,2,3,0,1,1,0,1,2,0.6
"B-985","epiandrosterone",-4.1577,"C[C@]12CC[C@H]3[C@@H](CC[C@H]4C[C@@H](O)CC[C@@]43C)[C@@H]1CCC2=O","C[C@]12CC[C@H]3[C@@H](CC[C@H]4C[C@@H](O)CC[C@@]43C)[C@@H]1CCC2=O",52.73917887088046,"C[C@]12CC[C@H]3[C@@H](CC[C@H]4C[C@@H](O)CC[C@]34C)[C@@H]1CCC2=O",3.959100000000003,37.3,290.2245802,2,1,0,1,2,0,2,21,51,7,4,0,4,4,0,0,0,0,4,4,0.9473684210526315
"B-986","ecgonine",-0.0173,"C[NH+]1C2CCC1[C@@H](C(=O)[O-])[C@@H](O)C2","C[NH+]1C2CCC1[C@@H](C(=O)[O-])[C@@H](O)C2",-89.89086729877663,"C[NH+]1C2CCC1[C@@H](C(=O)[O-])[C@@H](O)C2",-2.8371999999999975,64.8,185.10519334,4,2,1,2,3,0,4,13,28,5,2,0,2,2,0,2,2,0,0,0,0.8888888888888888
"B-987","fervenulin",-1.9849,"Cn1c(=O)c2ncnnc2n(C)c1=O","CN1C(=O)c2ncnnc2N(C)C1=O",-26.412132983489045,"Cn1c(=O)c2ncnnc2n(C)c1=O",-0.4865999999999999,79.29,193.059974464,7,0,0,0,5,3,7,14,21,0,2,1,0,1,1,0,1,0,0,0,0.2857142857142857
"B-988","osthole",-4.3087,"COc1ccc2ccc(=O)oc2c1CC=C(C)C","COc1ccc2c(c1CC=C(C)C)OC(=O)C=C2",41.752451854275314,"COc1ccc2c(c1CC=C(C)C)oc(=O)cc2",3.1361000000000017,35.53,244.109944372,3,0,3,0,3,0,3,18,34,0,2,1,0,1,0,0,1,1,0,0,0.26666666666666666
"B-989","binapacryl",-5.5083,"CCC(C)c1cc([N+](=O)[O-])cc([N+](=O)[O-])c1OC(=O)C=C(C)C","CCC(C)c1cc([N+](=O)[O-])cc([N+](=O)[O-])c1OC(=O)C=C(C)C",64.41029033418265,"CCC(C)c1cc([N+](=O)[O-])cc([N+](=O)[O-])c1OC(=O)C=C(C)C",3.888100000000003,112.58000000000001,322.116486296,8,0,6,0,6,0,8,23,41,1,1,1,0,0,0,0,0,1,0,0,0.4
"B-990","iridomyrmecin",-1.9249,"CC1CCC2C(C)C(=O)OCC12","CC1CCC2C(C)C(=O)OCC12",16.492048663309685,"CC1CCC2C(C)C(=O)OCC12",1.8416000000000001,26.3,168.115029752,2,0,0,0,2,0,2,12,28,4,2,0,2,2,0,1,1,0,1,1,0.9
"B-992","pyrrolo[2,1-b]quinazolin-9(1h)-one,2,3-dihydro-3",-2.106,"O=c1c2ccccc2nc2n1CC[C@@H]2O","O=C1c2ccccc2N=C2[C@@H](O)CCN12",-0.7960057588488496,"O=c1c2ccccc2nc2[C@@H](O)CCn12",0.9369999999999998,52.900000000000006,202.07422756,4,1,0,1,3,1,4,15,25,1,3,1,1,2,0,1,2,1,0,0,0.2727272727272727
"B-993","caulophylline",0.6484,"C[NH+]1C[C@@H]2C[C@@H](C1)c1cccc(=O)n1C2","C[NH+]1C[C@@H]2C[C@H](CN3C(=O)C=CC=C23)C1",23.340409245174847,"C[NH+]1C[C@@H]2C[C@H](Cn3c(=O)cccc23)C1",-0.5668999999999995,24.75,205.13353958409,3,1,0,1,1,1,3,15,32,3,3,0,2,3,0,2,3,0,0,0,0.5833333333333334
"B-994","lumazine",-2.1183,"O=c1[nH]c(=O)c2nccnc2[nH]1","O=C1NC(=O)c2nccnc2N1",56.89517440458239,"O=c1[nH]c(=O)c2nccnc2[nH]1",-0.24809999999999993,83.98,164.033425368,6,2,0,2,4,3,6,12,16,0,2,1,0,1,1,0,1,0,0,0,0
"B-995","1h-pyrrole-3-propanoic acid, 2,5-dihydro-4-methy",-0.6608,"CC1=C(CCC(=O)[O-])C(=O)NC1=O","CC1=C(CCC(=O)[O-])C(=O)NC1=O",-37.12219246737672,"CC1=C(CCC(=O)[O-])C(=O)NC1=O",-1.5106,86.29999999999998,182.04588131591,5,1,3,1,4,2,5,13,21,0,1,0,0,1,0,0,1,0,0,0,0.375
"B-997","azulene, 1,4-dimethyl-7-(1-methylethyl)-",-5.4752,"Cc1ccc(C(C)C)cc2c(C)ccc1-2","CC1=CC=C(C(C)C)C=C2C(C)=CC=C12",42.54187369572183,"Cc1ccc(C(C)C)cc2c(C)ccc12",4.341400000000004,0,198.140850576,0,0,1,0,0,0,0,15,33,0,2,0,0,2,0,0,0,0,0,2,0.3333333333333333
"B-998","monotropitoside",-0.7418,"COC(=O)c1ccccc1OC1OC(COC2OCC(O)C(O)C2O)C(O)C(O)C1O","COC(=O)c1ccccc1OC1OC(COC2OCC(O)C(O)C2O)C(O)C(O)C1O",96.32536107975385,"COC(=O)c1ccccc1OC1OC(COC2OCC(O)C(O)C2O)C(O)C(O)C1O",-2.884799999999998,184.6,446.14242627199985,12,6,6,6,12,0,12,31,57,9,3,1,2,2,0,2,2,1,0,0,0.631578947368421
"B-999","1(2h)-isoquinolinone",-2.4842,"O=c1[nH]ccc2ccccc12","O=C1NC=Cc2ccccc21",21.327066745726206,"O=c1[nH]ccc2ccccc12",1.4007,29.1,145.052763844,2,1,0,1,1,1,2,11,18,0,2,1,0,1,0,0,1,1,0,0,0
"B-1000","chrysarobin",-3.0585,"Cc1cc(O)c2c(O)c3c(O)cccc3cc2c1","Cc1cc(O)c2c(O)c3c(O)cccc3cc2c1",47.14426257509092,"Cc1cc(O)c2c(O)c3c(O)cccc3cc2c1",3.4182200000000016,60.69,240.078644244,3,3,0,3,3,0,3,18,30,0,3,3,0,0,0,0,0,3,0,0,0.06666666666666667
"B-1001","leucopterin",-5.1655,"Nc1nc(=O)c2[nH]c(=O)c(=O)[nH]c2[nH]1","NC1=NC(=O)C2=C(NC(=O)C(=O)N2)N1",27.549917300214272,"Nc1nc(=O)c2c([nH]c(=O)c(=O)[nH]2)[nH]1",-3.154,125.67999999999998,195.03923902,8,5,0,4,5,3,8,14,19,0,2,0,0,2,0,0,2,0,0,0,0
"B-1002","atropic acid",-2.0568,"C=C(C(=O)[O-])c1ccccc1","C=C(C(=O)[O-])c1ccccc1",24.208583624738942,"C=C(C(=O)[O-])c1ccccc1",0.4497,40.129999999999995,147.04515304391,2,0,2,0,2,0,2,11,18,0,1,1,0,0,0,0,0,1,0,0,0
"B-1003","2-amino-1-phenyl-propan-1-ol",-0.8786,"C[C@H]([NH3+])[C@@H](O)c1ccccc1","C[C@H]([NH3+])[C@@H](O)c1ccccc1",5.511657804377447,"C[C@H]([NH3+])[C@@H](O)c1ccccc1",0.35039999999999955,47.870000000000005,152.10699048809,2,4,2,2,1,0,2,11,25,2,1,1,0,0,0,0,0,1,0,0,0.3333333333333333
"B-1005","1,3-cyclohexanedione, 5-phenyl-",-2.5113,"O=C1C=C([O-])C[C@@H](c2ccccc2)C1","O=C1C=C([O-])C[C@@H](c2ccccc2)C1",33.6374694598771,"O=C1C=C([O-])C[C@@H](c2ccccc2)C1",1.3773000000000002,40.129999999999995,187.07645317191,2,0,1,0,2,0,2,14,25,1,2,1,0,1,0,0,0,1,0,1,0.25
"B-1006","anabasine",0.7898,"c1cncc([C@@H]2CCCC[NH2+]2)c1","c1cncc([C@@H]2CCCC[NH2+]2)c1",3.0943856108479855,"c1cncc([C@@H]2CCCC[NH2+]2)c1",0.8699999999999999,29.5,163.12297490009,2,2,1,1,1,0,2,12,27,1,2,1,1,1,1,1,1,0,0,0,0.5
"B-1007","gentisyl alcohol",0.8534,"OCc1cc(O)ccc1O","OCc1cc(O)ccc1O",12.662096096930583,"OCc1cc(O)ccc1O",0.5900999999999998,60.69,140.047344116,3,3,1,3,3,0,3,10,18,0,1,1,0,0,0,0,0,1,0,0,0.14285714285714285
"B-1008","bayer 15080",-4.6835,"O=Nc1ccc(NNC(=O)c2ccccc2)cc1","O=Nc1ccc(NNC(=O)c2ccccc2)cc1",46.362450902696345,"O=Nc1ccc(NNC(=O)c2ccccc2)cc1",2.841400000000001,70.56,241.085126592,5,2,4,2,4,1,5,18,29,0,2,2,0,0,0,0,0,2,0,0,0
"B-1009","salinazid",-3.6835,"O=C1C=CC=CC1=CNNC(=O)c1ccncc1","O=C1C=CC=CC1=CNNC(=O)c1ccncc1",25.41524555025942,"O=C1C=CC=CC1=CNNC(=O)c1ccncc1",0.8950000000000001,71.09,241.085126592,5,2,3,2,4,1,5,18,29,0,2,1,0,1,1,0,0,0,0,1,0
"B-1010","1h-indole, 2,3-dihydro-",-1.0427,"c1ccc2c(c1)CCN2","c1ccc2c(c1)CCN2",21.171651369375425,"c1ccc2c(c1)CCN2",1.6545999999999996,12.03,119.073499288,1,1,0,1,1,0,1,9,18,0,2,1,0,1,0,0,1,1,0,0,0.25
"B-1013","norcamphor",-1.7565,"O=C1CC2CCC1C2","O=C1CC2CCC1C2",19.58880437242623,"O=C1CC2CCC1C2",1.3755,17.07,110.07316494,1,0,0,0,1,0,1,8,18,2,2,0,2,2,0,0,0,0,2,2,0.8571428571428571
"B-1014","3-hydroxy-4-oxo-4h-pyran-2,6-dicarboxylic acid",-1.377,"O=C([O-])C1=CC(=O)C(=O)C(=C([O-])[O-])O1","O=C([O-])C1=CC(=O)C(=O)C(=C([O-])[O-])O1",95.4390957522622,"O=C([O-])C1=CC(=O)C(=O)C(=C([O-])[O-])O1",-4.3217,129.62,196.97387311173003,7,0,1,0,7,0,7,14,15,0,1,0,0,1,0,0,1,0,0,0,0
"B-1015","ethanone, 1-(4-hydroxy-3-methoxyphenyl)-",-1.5216,"COc1cc(C(C)=O)ccc1O","COc1cc(C(C)=O)ccc1O",28.271833920702374,"COc1cc(C(=O)C)ccc1O",1.6034,46.53,166.06299418,3,1,2,1,3,0,3,12,22,0,1,1,0,0,0,0,0,1,0,0,0.2222222222222222
"B-1016","norvaline",-0.0687,"CCC[C@@H]([NH3+])C(=O)[O-]","CCC[C@@H]([NH3+])C(=O)[O-]",-65.68877516490984,"CCC[C@@H]([NH3+])C(=O)[O-]",-1.8530999999999986,67.77,117.078978592,3,3,3,1,2,0,3,8,19,1,0,0,0,0,0,0,0,0,0,0,0.8
"B-1017","citraconic acid",0.7795,"CC(=CC(=O)[O-])C(=O)[O-]","CC(=CC(=O)[O-])C(=O)[O-]",69.40707261449737,"CC(=CC(=O)[O-])C(=O)[O-]",-2.567499999999999,80.25999999999999,128.01205576782002,4,0,2,0,4,0,4,9,13,0,0,0,0,0,0,0,0,0,0,0,0.2
"B-1018","phenol, 2-methyl-5-(1-methylethyl)-",-2.0798,"Cc1ccc(C(C)C)cc1O","Cc1ccc(C(C)C)cc1O",16.97311867519149,"Cc1ccc(C(C)C)cc1O",2.8240200000000013,20.23,150.104465068,1,1,1,1,1,0,1,11,25,0,1,1,0,0,0,0,0,1,0,0,0.4
"B-1019","beta-eucaine",-1.922,"CC1CC(OC(=O)c2ccccc2)CC(C)(C)[NH2+]1","CC1CC(OC(=O)c2ccccc2)CC(C)(C)[NH2+]1",1.8070549997505885,"CC1CC(OC(=O)c2ccccc2)CC(C)(C)[NH2+]1",1.7363,42.91,248.16450536409,3,2,2,1,2,0,3,18,40,2,2,1,1,1,0,1,1,1,0,0,0.5333333333333333
"B-1020","acetic acid, oxo(phenylamino)-",-1.3019,"O=C([O-])C(=O)Nc1ccccc1","O=C([O-])C(=O)Nc1ccccc1",117.8134873387361,"O=C([O-])C(=O)Nc1ccccc1",-0.6250000000000007,69.22999999999999,164.03531663191,4,1,1,1,3,1,4,12,18,0,1,1,0,0,0,0,0,1,0,0,0