"ID","Name","Solubility","SMILES Canonical","Smiles (Optimized Geometry)","Energy","Smiles","SlogP","TPSA","ExactMW","NumLipinskiHBA","NumLipinskiHBD","NumRotatableBonds","NumHBD","NumHBA","NumAmideBonds","NumHeteroAtoms","NumHeavyAtoms","NumAtoms","NumStereocenters","NumRings","NumAromaticRings","NumSaturatedRings","NumAliphaticRings","NumAromaticHeterocycles","NumSaturatedHeterocycles","NumAliphaticHeterocycles","NumAromaticCarbocycles","NumSaturatedCarbocycles","NumAliphaticCarbocycles","FractionCSP3"
"B-95","6-aminohexanoic acid",0.5854,"[NH3+]CCCCCC(=O)[O-]","[NH3+]CCCCCC(=O)[O-]",-98.20724069320781,"[NH3+]CCCCCC(=O)[O-]",-1.4613999999999996,67.77,131.094628656,3,3,5,1,2,0,3,9,22,0,0,0,0,0,0,0,0,0,0,0,0.8333333333333334
"B-98","tetracycline",-3.284,"C[NH+](C)[C@@H]1C(=O)C(=C([NH3+])[O-])C(=O)[C@@]2(O)C(=O)C3=C([O-])c4c(O)cccc4[C@@](C)(O)[C@H]3C[C@@H]12","C[NH+](C)[C@@H]1C(=O)C(=C([NH3+])[O-])C(=O)[C@@]2(O)C(=O)C3=C([O-])c4c(O)cccc4[C@@](C)(O)[C@H]3C[C@@H]12",-28.15859755909156,"C[NH+](C)[C@@H]1C(=O)C(=C([NH3+])[O-])C(=O)[C@@]2(O)C(=O)C3=C([O-])c4c(O)cccc4[C@@](C)(O)[C@H]3C[C@@H]12",-4.9002999999999926,190.1,444.15326572799995,10,7,1,5,8,0,10,32,56,5,4,1,2,3,0,0,0,1,2,3,0.4090909090909091
"B-100","methotrimeprazine",-4.2155,"COc1ccc2c(c1)N(C[C@H](C)C[NH+](C)C)c1ccccc1S2","COc1ccc2c(c1)N(C[C@H](C)C[NH+](C)C)c1ccccc1S2",50.749050242646874,"COc1ccc2c(c1)N(C[C@H](C)C[NH+](C)C)c1ccccc1S2",3.078500000000001,16.91,329.16821084009007,3,1,5,1,3,0,4,23,48,1,3,2,0,1,0,0,1,2,0,0,0.3684210526315789
"B-102","mefenamic acid",-4.0815,"Cc1cccc(Nc2ccccc2C(=O)[O-])c1C","Cc1cccc(Nc2ccccc2C(=O)[O-])c1C",44.01133876807092,"Cc1cccc(Nc2ccccc2C(=O)[O-])c1C",2.41054,52.16,240.10300226791,3,1,3,1,3,0,3,18,32,0,2,2,0,0,0,0,0,2,0,0,0.13333333333333333
"B-107","alanine, 2-methyl-",0.2453,"CC(C)([NH3+])C(=O)[O-]","CC(C)([NH3+])C(=O)[O-]",-62.33670735428693,"CC(C)([NH3+])C(=O)[O-]",-2.243199999999999,67.77,103.063328528,3,3,1,1,2,0,3,7,16,0,0,0,0,0,0,0,0,0,0,0,0.75
"B-108","cevadine",-3.0163,"CC=C(C)C(=O)O[C@H]1CC[C@@]2(C)[C@@H]3CC[C@@H]4[C@@]2(C[C@@]2(O)[C@@H]5C[NH+]6C[C@@H](C)CC[C@H]6[C@@](C)(O)[C@@]5(O)[C@@H](O)C[C@@]42O)O[C@]13O","CC=C(C)C(=O)O[C@H]1CC[C@@]2(C)[C@@H]3CC[C@@H]4[C@@]2(C[C@@]2(O)[C@@H]5C[NH+]6C[C@@H](C)CC[C@H]6[C@@](C)(O)[C@@]5(O)[C@@H](O)C[C@@]42O)O[C@]13O",97.71498074548349,"CC=C(C)C(=O)O[C@H]1CC[C@@]2(C)[C@@H]3CC[C@@H]4[C@@]2(C[C@@]2(O)[C@@H]5C[NH+]6C[C@@H](C)CC[C@H]6[C@@](C)(O)[C@@]5(O)[C@@H](O)C[C@@]42O)O[C@]13O",-0.425899999999995,161.35,592.34800860009,10,7,2,7,9,0,10,42,92,15,7,0,7,7,0,3,3,0,4,4,0.90625
"B-112","arecoline",0.8091,"COC(=O)C1=CCC[NH+](C)C1","COC(=O)C1=CCC[NH+](C)C1",-26.78393587715834,"COC(=O)C1=CCC[NH+](C)C1",-0.9957999999999989,30.740000000000002,156.10190510809,3,1,1,1,2,0,3,11,25,1,1,0,0,1,0,0,1,0,0,0,0.625
"B-114","n-methyl o-(3-isopropylphenyl)carbamate",-3.3567,"CNC(=O)Oc1cccc(C(C)C)c1","CNC(=O)Oc1cccc(C(C)C)c1",6.881369962297145,"CNC(=O)Oc1cccc(C(C)C)c1",2.528200000000001,38.33,193.11027872,3,1,2,1,2,1,3,14,29,0,1,1,0,0,0,0,0,1,0,0,0.36363636363636365
"B-120","mebutamate",-2.366,"CCC(C)C(C)(COC(N)=O)COC(N)=O","CCC(C)C(C)(COC(N)=O)COC(N)=O",-15.052632499297571,"CCC(C)C(C)(COC(=O)N)COC(=O)N",1.2294000000000005,104.63999999999999,232.14230712,6,4,6,2,4,2,6,16,36,1,0,0,0,0,0,0,0,0,0,0,0.8
"B-121","colchicine",-0.9482,"COc1cc2c(c(OC)c1OC)-c1ccc(OC)c(=O)cc1[C@@H](NC(C)=O)CC2","COc1cc2c(c(OC)c1OC)-c1ccc(OC)c(=O)cc1[C@@H](NC(C)=O)CC2",104.62235750862683,"COc1cc2c(c(OC)c1OC)c1ccc(OC)c(=O)cc1[C@@H](NC(=O)C)CC2",2.871600000000001,83.09,399.16818752,7,1,5,1,6,1,7,29,54,1,3,2,0,1,0,0,0,2,0,1,0.36363636363636365
"B-125","o-phenanthroline",-1.826,"c1cnc2c(c1)ccc1cccnc12","c1cnc2c(c1)ccc1cccnc12",64.20494781483444,"c1cnc2c(c1)ccc1cccnc21",2.7830000000000004,25.78,180.068748256,2,0,0,0,2,0,2,14,22,0,3,3,0,0,2,0,0,1,0,0,0
"B-126","pyridoxal",0.4758,"Cc1ncc(CO)c(C=O)c1O","Cc1ncc(CO)c(C=O)c1O",1.5314934250177177,"Cc1ncc(CO)c(C=O)c1O",0.40041999999999983,70.42,167.058243148,4,2,2,2,4,0,4,12,21,0,1,1,0,0,1,0,0,0,0,0,0.25
"B-128","nihydrazone",-2.5958,"CC(=O)NN=Cc1ccc([N+](=O)[O-])o1","CC(=O)NN=Cc1ccc([N+](=O)[O-])o1",72.00683262689502,"CC(=O)NN=Cc1ccc([N+](=O)[O-])o1",0.6577999999999999,97.74,197.043655704,7,1,3,1,5,1,7,14,21,0,1,1,0,0,1,0,0,0,0,0,0.14285714285714285
"B-135","norethindrone",-4.6271,"C#C[C@]1(O)CC[C@H]2[C@@H]3CCC4=CC(=O)CC[C@@H]4[C@H]3CC[C@@]21C","C#C[C@]1(O)CC[C@H]2[C@@H]3CCC4=CC(=O)CC[C@@H]4[C@H]3CC[C@@]21C",58.64816370838585,"C#C[C@]1(O)CC[C@H]2[C@@H]3CCC4=CC(=O)CC[C@@H]4[C@H]3CC[C@]12C",3.4925000000000024,37.3,298.193280072,2,1,0,1,2,0,2,22,48,6,4,0,3,4,0,0,0,0,3,4,0.75
"B-137","hypoxanthine",-2.2888,"O=c1nc[nH]c2nc[nH]c12","O=C1N=CNc2nc[nH]c21",-67.6702455511771,"O=c1nc[nH]c2nc[nH]c12",0.0037000000000000366,70.14,136.038510748,5,2,0,2,3,1,5,10,14,0,2,1,0,1,1,0,1,0,0,0,0
"B-140","maltose",0.3577,"OCC1OC(OC2C(CO)OC(O)C(O)C2O)C(O)C(O)C1O","OCC1OC(OC2C(CO)OC(O)C(O)C2O)C(O)C(O)C1O",97.92096161641122,"OCC1OC(OC2C(CO)OC(O)C(O)C2O)C(O)C(O)C1O",-5.397199999999993,189.52999999999997,342.11621152399994,11,8,4,8,11,0,11,23,45,10,2,0,2,2,0,2,2,0,0,0,1
"B-143","1-fluoro-2,4-dinitrobenzene",-2.6677,"O=[N+]([O-])c1ccc(F)c([N+](=O)[O-])c1","O=[N+]([O-])c1ccc(F)c([N+](=O)[O-])c1",18.97465060701022,"O=[N+]([O-])c1ccc(F)c([N+](=O)[O-])c1",1.6421000000000001,86.28,186.007684796,6,0,2,0,4,0,7,13,16,0,1,1,0,0,0,0,0,1,0,0,0
"B-145","deferoxamine",-1.6695,"CC(=O)N(O)CCCCCNC(=O)CCC(=O)N(O)CCCCCNC(=O)CCC(=O)N(O)CCCCC[NH3+]","CC(=O)N(O)CCCCCNC(=O)CCC(=O)N(O)CCCCCNC(=O)CCC(=O)N(O)CCCCC[NH3+]",-95.98719270618346,"CC(=O)N(O)CCCCCNC(=O)CCC(=O)N(O)CCCCCNC(=O)CCC(=O)N(O)CCCCC[NH3+]",0.20530000000000598,207.45999999999998,561.36063894809,14,8,23,6,8,5,14,39,88,0,0,0,0,0,0,0,0,0,0,0,0.8
"B-146","histidine",-0.5314,"[NH3+]C(Cc1cnc[nH]1)C(=O)[O-]","[NH3+]C(Cc1cnc[nH]1)C(=O)[O-]",-82.68913508998995,"[NH3+]C(Cc1cnc[nH]1)C(=O)[O-]",-2.6873999999999993,96.45,155.069476528,5,4,3,2,3,0,5,11,20,1,1,1,0,0,1,0,0,0,0,0,0.3333333333333333
"B-148","cytosine",-1.1426,"Nc1ccnc(=O)[nH]1","NC1=CC=NC(=O)N1",-29.050518291266577,"Nc1ccnc(=O)[nH]1",-0.41949999999999993,67.47999999999999,111.04326178,4,3,0,2,2,2,4,8,13,0,1,0,0,1,0,0,1,0,0,0,0
"B-154","alizarine",-2.7785,"O=C1c2ccccc2C(=O)c2c1ccc(O)c2[O-]","O=C1c2ccccc2C(=O)c2c1ccc(O)c2[O-]",73.67539151795083,"O=C1c2ccccc2C(=O)c2c1ccc(O)c2[O-]",1.2411999999999996,77.43,239.03498228391,4,1,0,1,4,0,4,18,25,0,3,2,0,1,0,0,0,2,0,1,0
"B-157","adenine",-2.1179,"Nc1ncnc2nc[nH]c12","Nc1ncnc2nc[nH]c12",-67.73868328100663,"Nc1ncnc2nc[nH]c12",-0.0648999999999999,80.47999999999999,135.05449516,5,3,0,2,4,0,5,10,15,0,2,2,0,0,2,0,0,0,0,0,0
"B-159","bendroflumethiazide",-3.5913,"NS(=O)(=O)c1cc2c(cc1C(F)(F)F)NC(Cc1ccccc1)NS2(=O)=O","NS(=O)(=O)c1cc2c(cc1C(F)(F)F)NC(Cc1ccccc1)NS2(=O)=O",-55.40818264690493,"NS(=O)(=O)c1cc2c(cc1C(F)(F)F)NC(Cc1ccccc1)NS2(=O)=O",1.6254000000000004,118.35999999999999,421.03778258799997,7,4,3,3,5,0,12,27,41,1,3,2,0,1,0,0,1,2,0,0,0.2
"B-194","3,3-dimethyl-2-butanone",-0.7219,"CC(=O)C(C)(C)C","CC(=O)C(C)(C)C",6.470540267662419,"CC(=O)C(C)(C)C",1.6215,17.07,100.088815004,1,0,0,0,1,0,1,7,19,0,0,0,0,0,0,0,0,0,0,0,0.8333333333333334
"B-205","camphor",-1.9784,"CC12CCC(CC1=O)C2(C)C","CC12CCC(CC1=O)C2(C)C",35.177111796731666,"CC12CCC(CC1=O)C2(C)C",2.401700000000001,17.07,152.120115132,1,0,0,0,1,0,1,11,27,2,2,0,2,2,0,0,0,0,2,2,0.9
"B-206","alloxantin",-1.9942,"O=C1NC(=O)C(O)(C2(O)C(=O)NC(=O)NC2=O)C(=O)N1","O=C1NC(=O)C(O)(C2(O)C(=O)NC(=O)NC2=O)C(=O)N1",-122.39252145133044,"O=C1NC(=O)C(O)(C2(O)C(=O)NC(=O)NC2=O)C(=O)N1",-4.819399999999999,191,286.018563152,12,6,1,6,8,8,12,20,26,0,2,0,2,2,0,2,2,0,0,0,0.25
"B-207","triamcinolone acetonide",-4.3158,"CC1(C)O[C@@H]2C[C@H]3[C@@H]4CCC5=CC(=O)C=C[C@]5(C)[C@@]4(F)[C@@H](O)C[C@]3(C)[C@]2(C(=O)CO)O1","CC1(C)O[C@@H]2C[C@H]3[C@@H]4CCC5=CC(=O)C=C[C@]5(C)[C@@]4(F)[C@@H](O)C[C@]3(C)[C@]2(C(=O)CO)O1",120.88257166842762,"CC1(C)O[C@@H]2C[C@H]3[C@@H]4CCC5=CC(=O)C=C[C@]5(C)[C@@]4(F)[C@@H](O)C[C@]3(C)[C@]2(C(=O)CO)O1",2.4188000000000005,93.06,434.2104669319999,6,2,2,2,6,0,7,31,62,8,5,0,4,5,0,1,1,0,3,4,0.75
"B-208","2-methyl-2-nitro-1-propanol",1.4681,"CC(C)(CO)[N+](=O)[O-]","CC(C)(CO)[N+](=O)[O-]",-5.447188953809434,"CC(C)(CO)[N+](=O)[O-]",0.033999999999999975,63.370000000000005,119.058243148,4,1,2,1,3,0,4,8,17,0,0,0,0,0,0,0,0,0,0,0,1
"B-211","codeine",-1.522,"COc1ccc2c3c1O[C@H]1[C@@H](O)C=C[C@H]4[C@@H](C2)[NH+](C)CC[C@]314","COc1ccc2c3c1O[C@H]1[C@@H](O)C=C[C@H]4[C@@H](C2)[NH+](C)CC[C@]314",84.54918020773698,"COc1ccc2c3c1O[C@H]1[C@@H](O)C=C[C@H]4[C@@H](C2)[NH+](C)CC[C@]314",0.08400000000000052,43.129999999999995,300.15941998409,4,2,1,2,3,0,4,22,44,6,5,1,1,4,0,1,2,1,0,2,0.5555555555555556
"B-212","dionine",-2.079,"CCOc1ccc2c3c1O[C@H]1[C@@H](O)C=C[C@H]4[C@@H](C2)[NH+](C)CC[C@]314","CCOc1ccc2c3c1O[C@H]1[C@@H](O)C=C[C@H]4[C@@H](C2)[NH+](C)CC[C@]314",84.3768120070655,"CCOc1ccc2c3c1O[C@H]1[C@@H](O)C=C[C@H]4[C@@H](C2)[NH+](C)CC[C@]314",0.47410000000000024,43.129999999999995,314.17507004809,4,2,2,2,3,0,4,23,47,6,5,1,1,4,0,1,2,1,0,2,0.5789473684210527
"B-213","benzenemethanol, 4-amino-.alpha.,.alpha.-bis(4-a",-3.0272,"Cc1cc(C(O)(c2ccc(N)cc2)c2ccc(N)cc2)ccc1N","Cc1cc(C(O)(c2ccc(N)cc2)c2ccc(N)cc2)ccc1N",57.710614502069696,"Cc1cc(C(O)(c2ccc(N)cc2)c2ccc(N)cc2)ccc1N",3.0258200000000004,98.28999999999999,319.168462292,4,7,3,4,4,0,4,24,45,0,3,3,0,0,0,0,0,3,0,0,0.1
"B-214","triphenylcarbinol",-2.2596,"OC(c1ccccc1)(c1ccccc1)c1ccccc1","OC(c1ccccc1)(c1ccccc1)c1ccccc1",57.25816663078839,"OC(c1ccccc1)(c1ccccc1)c1ccccc1",3.970800000000003,20.23,260.120115132,1,1,3,1,1,0,1,20,36,0,3,3,0,0,0,0,0,3,0,0,0.05263157894736842
"B-215","barbituric acid,5-me-5-phenyl-",-2.4581,"CC1(c2ccccc2)C(=O)NC(=O)NC1=O","CC1(c2ccccc2)C(=O)NC(=O)NC1=O",-18.204787643788546,"CC1(c2ccccc2)C(=O)NC(=O)NC1=O",0.31030000000000013,75.27000000000001,218.06914218,5,2,1,2,3,4,5,16,26,0,2,1,1,1,0,1,1,1,0,0,0.18181818181818182
"B-216","phenolphthalein",-2.9008,"O=C1OC(c2ccc(O)cc2)(c2ccc(O)cc2)c2ccccc21","O=C1OC(c2ccc(O)cc2)(c2ccc(O)cc2)c2ccccc21",39.42041666422431,"O=C1OC(c2ccc(O)cc2)(c2ccc(O)cc2)c2ccccc12",3.560100000000002,66.76,318.089208928,4,2,2,2,4,0,4,24,38,0,4,3,0,1,0,0,1,3,0,0,0.05
"B-217","butalbital",-2.1193,"C=CCC1(CC(C)C)C(=O)NC(=O)NC1=O","C=CCC1(CC(C)C)C(=O)NC(=O)NC1=O",-53.593650338607354,"C=CCC1(CC(C)C)C(=O)NC(=O)NC1=O",0.9609999999999999,75.27000000000001,224.116092372,5,2,4,2,3,4,5,16,32,0,1,0,1,1,0,1,1,0,0,0,0.5454545454545454
"B-219","2-methyl-2-nitropropane-1,3-diol",0.7724,"CC(CO)(CO)[N+](=O)[O-]","CC(CO)(CO)[N+](=O)[O-]",-24.30844066866408,"CC(CO)(CO)[N+](=O)[O-]",-0.9936,83.6,135.053157768,5,2,3,2,4,0,5,9,18,0,0,0,0,0,0,0,0,0,0,0,1
"B-220","3-methyl-3-pentanol",-0.38,"CCC(C)(O)CC","CCC(C)(O)CC",6.968577703061146,"CCC(C)(O)CC",1.5574,20.23,102.104465068,1,1,2,1,1,0,1,7,21,0,0,0,0,0,0,0,0,0,0,0,1
"B-222","tabun",-0.2186,"CCOP(=O)(C#N)N(C)C","CCOP(=O)(C#N)N(C)C",1.9237133379903106,"CCOP(=O)(C#N)N(C)C",1.25868,53.330000000000005,162.055814222,4,0,3,0,3,0,5,10,21,1,0,0,0,0,0,0,0,0,0,0,0.8
"B-224","acetyl tributyl citrate",-4.9058,"CCCCOC(=O)CC(CC(=O)OCCCC)(OC(C)=O)C(=O)OCCCC","CCCCOC(=O)CC(CC(=O)OCCCC)(OC(C)=O)C(=O)OCCCC",-64.27318106516553,"CCCCOC(=O)CC(CC(=O)OCCCC)(OC(=O)C)C(=O)OCCCC",3.0984000000000016,105.2,402.22536804799995,8,0,15,0,8,0,8,28,62,0,0,0,0,0,0,0,0,0,0,0,0.8
"B-226","triethyl citrate",-0.6285,"CCOC(=O)CC(O)(CC(=O)OCC)C(=O)OCC","CCOC(=O)CC(O)(CC(=O)OCC)C(=O)OCC",-59.09364630786117,"CCOC(=O)CC(O)(CC(=O)OCC)C(=O)OCC",0.18700000000000006,99.13000000000001,276.12090298000004,7,1,8,1,7,0,7,19,39,0,0,0,0,0,0,0,0,0,0,0,0.75
"B-227","1,1,1-tris(hydroxymethyl)propane",0.8723,"CCC(CO)(CO)CO","CCC(CO)(CO)CO",-2.697052820286822,"CCC(CO)(CO)CO",-0.6403000000000001,60.69,134.094294308,3,3,4,3,3,0,3,9,23,0,0,0,0,0,0,0,0,0,0,0,1
"B-228","pentaerythritol tetranitrate",-3.8664,"O=[N+]([O-])OCC(CO[N+](=O)[O-])(CO[N+](=O)[O-])CO[N+](=O)[O-]","O=[N+]([O-])OCC(CO[N+](=O)[O-])(CO[N+](=O)[O-])CO[N+](=O)[O-]",-80.2282227592843,"O=[N+]([O-])OCC(CO[N+](=O)[O-])(CO[N+](=O)[O-])CO[N+](=O)[O-]",-1.1939999999999997,209.48,316.01387169599997,16,0,12,0,12,0,16,21,29,0,0,0,0,0,0,0,0,0,0,0,1
"B-229","3-pentanol, 3-methyl-, carbamate",-1.5599,"CCC(C)(CC)OC(N)=O","CCC(C)(CC)OC(N)=O",-3.0119111542720507,"CCC(C)(CC)OC(=O)N",1.6604,52.32,145.11027872,3,2,3,1,2,1,3,10,25,0,0,0,0,0,0,0,0,0,0,0,0.8571428571428571
"B-230","tri-p-cresyl phosphate",-6.0892,"Cc1ccc(OP(=O)(Oc2ccc(C)cc2)Oc2ccc(C)cc2)cc1","Cc1ccc(OP(=O)(Oc2ccc(C)cc2)Oc2ccc(C)cc2)cc1",31.988390750085777,"Cc1ccc(OP(=O)(Oc2ccc(C)cc2)Oc2ccc(C)cc2)cc1",6.256760000000005,44.760000000000005,368.11774578200004,4,0,6,0,4,0,5,26,47,0,3,3,0,0,0,0,0,3,0,0,0.14285714285714285
"B-231","carisoprodol",-2.9384,"CCCC(C)(COC(N)=O)COC(=O)NC(C)C","CCCC(C)(COC(N)=O)COC(=O)NC(C)C",-44.530645974113924,"CCCC(C)(COC(=O)N)COC(=O)NC(C)C",2.0227,90.65,260.173607248,6,3,7,2,4,2,6,18,42,1,0,0,0,0,0,0,0,0,0,0,0.8333333333333334
"B-232","dibutyl butylphosphonate",-2.6995,"CCCCOP(=O)(CCCC)OCCCC","CCCCOP(=O)(CCCC)OCCCC",-40.935753800819505,"CCCCOP(=O)(CCCC)OCCCC",4.613000000000004,35.53,250.169781354,3,0,11,0,3,0,4,16,43,0,0,0,0,0,0,0,0,0,0,0,1
"B-234","menazon",-3.069,"COP(=S)(OC)SCc1nc(N)nc(N)n1","COP(=S)(OC)SCc1nc(N)nc(N)n1",-174.40792823545073,"COP(=S)(OC)SCc1nc(N)nc(N)n1",0.7865,109.17,281.01700325400003,7,4,5,2,9,0,10,16,28,0,1,1,0,0,1,0,0,0,0,0,0.5
"B-237","linalool",-1.9871,"C=CC(C)(O)CCC=C(C)C","C=CC(C)(O)CCC=C(C)C",1.3391385556433288,"C=CC(C)(O)CCC=C(C)C",2.6698000000000013,20.23,154.135765196,1,1,4,1,1,0,1,11,29,1,0,0,0,0,0,0,0,0,0,0,0.6
"B-259","d-pantothenic acid",0.6591,"CC(C)(CO)C(O)C(=O)NCCC(=O)[O-]","CC(C)(CO)C(O)C(=O)NCCC(=O)[O-]",-8.500556780152216,"CC(C)(CO)C(O)C(=O)NCCC(=O)[O-]",-2.3779999999999983,109.69,218.10339619191,6,3,6,3,5,1,6,15,31,1,0,0,0,0,0,0,0,0,0,0,0.7777777777777778
"B-260","3-furancarboxylic acid, tetrahydro-2,2-dimethyl-",-1.2449,"CC1(C)OC(=O)C[C@@H]1C(=O)[O-]","CC1(C)OC(=O)C[C@@H]1C(=O)[O-]",-29.859450995418193,"CC1(C)OC(=O)C[C@@H]1C(=O)[O-]",-0.9219999999999999,66.43,157.05063234791,4,0,1,0,4,0,4,11,20,1,1,0,1,1,0,1,1,0,0,0,0.7142857142857143
"B-263","benzenesulfonamide, 4-amino-n-[5-(1-methylethyl)",-3.4141,"CC(C)c1nnc(NS(=O)(=O)c2ccc(N)cc2)s1","CC(C)c1nnc(NS(=O)(=O)c2ccc(N)cc2)s1",-31.263110393951667,"CC(C)c1nnc(NS(=O)(=O)c2ccc(N)cc2)s1",2.0445,97.97,298.055817688,6,3,4,2,6,0,8,19,33,0,2,2,0,0,1,0,0,1,0,0,0.2727272727272727
"B-264","peroxide, bis(1-methyl-1-phenylethyl)",-5.7692,"CC(C)(OOC(C)(C)c1ccccc1)c1ccccc1","CC(C)(OOC(C)(C)c1ccccc1)c1ccccc1",53.89034544626438,"CC(C)(OOC(C)(C)c1ccccc1)c1ccccc1",4.805200000000005,18.46,270.161979944,2,0,5,0,2,0,2,20,42,0,2,2,0,0,0,0,0,2,0,0,0.3333333333333333
"B-265","p-tert-amylphenol",-2.9902,"CCC(C)(C)c1ccc(O)cc1","CCC(C)(C)c1ccc(O)cc1",22.73767649084928,"CCC(C)(C)c1ccc(O)cc1",3.0798000000000014,20.23,164.120115132,1,1,2,1,1,0,1,12,28,0,1,1,0,0,0,0,0,1,0,0,0.45454545454545453
"B-269","preg-4-ene-3,20-dione, 11-hydroxy-, (11.alpha.)-",-3.8202,"CC(=O)C1CC[C@H]2[C@@H]3CCC4=CC(=O)CC[C@]4(C)[C@H]3[C@H](O)C[C@]12C","CC(=O)C1CC[C@H]2[C@@H]3CCC4=CC(=O)CC[C@]4(C)[C@H]3[C@H](O)C[C@]12C",57.747543554404565,"CC(=O)C1CC[C@H]2[C@@H]3CCC4=CC(=O)CC[C@]4(C)[C@H]3[C@H](O)C[C@]12C",3.694300000000003,54.370000000000005,330.21949481999997,3,1,1,1,3,0,3,24,54,7,4,0,3,4,0,0,0,0,3,4,0.8095238095238095
"B-272","musk ketone",-5.1901,"CC(=O)c1c(C)c([N+](=O)[O-])c(C(C)(C)C)c([N+](=O)[O-])c1C","CC(=O)c1c(C)c([N+](=O)[O-])c(C(C)(C)C)c([N+](=O)[O-])c1C",97.41913884941393,"CC(=O)c1c(C)c([N+](=O)[O-])c(C(C)(C)C)c([N+](=O)[O-])c1C",3.6199400000000033,103.35,294.121571676,7,0,3,0,5,0,7,21,39,0,1,1,0,0,0,0,0,1,0,0,0.5
"B-274","purpurin",-4.6024,"O=C1c2ccccc2C(=O)c2c([O-])c(O)cc([O-])c21","O=C1c2ccccc2C(=O)c2c([O-])c(O)cc([O-])c21",178.63521927756983,"O=C1c2ccccc2C(=O)c2c([O-])c(O)cc([O-])c12",0.3147999999999997,100.49000000000001,254.02262045182002,5,1,0,1,5,0,5,19,25,0,3,2,0,1,0,0,0,2,0,1,0
"B-277","benzoic acid, 2- bis(4-hydroxyphenyl)methyl -",-3.2626,"O=C([O-])c1ccccc1C(c1ccc(O)cc1)c1ccc(O)cc1","O=C([O-])c1ccccc1C(c1ccc(O)cc1)c1ccc(O)cc1",51.39188202162778,"O=C([O-])c1ccccc1C(c1ccc(O)cc1)c1ccc(O)cc1",2.6415000000000006,80.59,319.09758253991004,4,2,4,2,4,0,4,24,39,0,3,3,0,0,0,0,0,3,0,0,0.05
"B-279","1-amino-2-methyl-9,10-anthracenedione",-5.8541,"Cc1ccc2c(c1N)C(=O)c1ccccc1C2=O","Cc1ccc2c(c1N)C(=O)c1ccccc1C2=O",32.21885034846562,"Cc1ccc2c(c1N)C(=O)c1ccccc1C2=O",2.352620000000001,60.160000000000004,237.078978592,3,2,0,1,3,0,3,18,29,0,3,2,0,1,0,0,0,2,0,1,0.06666666666666667
"B-280","1,8-anthraquinonedisulfonic acid",1.2572,"O=C1c2cccc(S(=O)(=O)[O-])c2C(=O)c2c1cccc2S(=O)(=O)[O-]","O=C1c2cccc(S(=O)(=O)[O-])c2C(=O)c2c1cccc2S(=O)(=O)[O-]",64.6068827414635,"O=C1c2cccc(S(=O)(=O)[O-])c2C(=O)c2c1cccc2S(=O)(=O)[O-]",0.2702000000000002,148.54,365.95150631181997,8,0,2,0,8,0,10,24,30,0,3,2,0,1,0,0,0,2,0,1,0
"B-282","cyclizine",-2.4255,"CN1CC[NH+](C(c2ccccc2)c2ccccc2)CC1","CN1CC[NH+](C(c2ccccc2)c2ccccc2)CC1",76.03231405274079,"CN1CC[NH+](C(c2ccccc2)c2ccccc2)CC1",1.6063,7.680000000000001,267.18557515609,2,1,3,1,1,0,2,20,43,0,3,2,1,1,0,1,1,2,0,0,0.3333333333333333
"B-284","pindone",-4.107,"CC(C)(C)C(=O)C1C(=O)c2ccccc2C1=O","CC(C)(C)C(=O)C1C(=O)c2ccccc2C1=O",0.39225069109775657,"CC(C)(C)C(=O)C1C(=O)c2ccccc2C1=O",2.2970000000000006,51.21,230.094294308,3,0,1,0,3,0,3,17,31,0,2,1,0,1,0,0,0,1,0,1,0.35714285714285715
"B-285","methylprednisolone",-3.4942,"C[C@H]1C[C@H]2[C@@H]3CC[C@](O)(C(=O)CO)[C@@]3(C)C[C@H](O)[C@@H]2[C@@]2(C)C=CC(=O)C=C12","C[C@H]1C[C@H]2[C@@H]3CC[C@](O)(C(=O)CO)[C@@]3(C)C[C@H](O)[C@@H]2[C@@]2(C)C=CC(=O)C=C12",89.70536474099315,"C[C@H]1C[C@H]2[C@@H]3CC[C@](O)(C(=O)CO)[C@@]3(C)C[C@H](O)[C@@H]2[C@@]2(C)C=CC(=O)C=C12",1.8036,94.83000000000001,374.20932406,5,3,2,3,5,0,5,27,57,8,4,0,3,4,0,0,0,0,3,4,0.7272727272727273
"B-287","4(1h)-quinolinone, 1-methyl-",-0.9818,"Cn1ccc(=O)c2ccccc21","CN1C=CC(=O)c2ccccc21",30.10793409737157,"Cn1ccc(=O)c2ccccc12",1.8328,20.310000000000002,159.068413908,2,0,0,0,2,0,2,12,21,0,2,1,0,1,0,0,1,1,0,0,0.1
"B-289","rotenone",-6.2949,"C=C(C)[C@H]1Cc2c(ccc3c2O[C@@H]2COc4cc(OC)c(OC)cc4[C@@H]2C3=O)O1","C=C(C)[C@H]1Cc2c(ccc3c2O[C@@H]2COc4cc(OC)c(OC)cc4[C@@H]2C3=O)O1",80.67875037448945,"C=C(C)[C@H]1Cc2c(ccc3c2O[C@@H]2COc4cc(OC)c(OC)cc4[C@@H]2C3=O)O1",3.7033000000000023,63.22,394.1416384239999,6,0,3,0,6,0,6,29,51,3,5,2,0,3,0,0,3,2,0,0,0.34782608695652173
"B-290","phytic acid",0.1804,"O=P([O-])([O-])O[C@H]1[C@H](OP(=O)([O-])[O-])[C@@H](OP(=O)([O-])[O-])[C@H](OP(=O)([O-])[O-])[C@@H](OP(=O)([O-])[O-])[C@H]1OP(=O)([O-])[O-]","O=P([O-])([O-])O[C@H]1[C@H](OP(=O)([O-])[O-])[C@@H](OP(=O)([O-])[O-])[C@H](OP(=O)([O-])[O-])[C@@H](OP(=O)([O-])[O-])[C@H]1OP(=O)([O-])[O-]",2489.009081877988,"O=P([O-])([O-])O[C@H]1[C@H](OP(=O)([O-])[O-])[C@@H](OP(=O)([O-])[O-])[C@H](OP(=O)([O-])[O-])[C@@H](OP(=O)([O-])[O-])[C@H]1OP(=O)([O-])[O-]",-10.716600000000003,434.52,647.7740538109199,24,0,12,0,24,0,30,36,42,0,1,0,1,1,0,0,0,0,1,1,1
"B-291","riboflavin",-3.6478,"Cc1cc2nc3c(=O)[nH]c(=O)nc-3n(CC(O)C(O)C(O)CO)c2cc1C","Cc1cc2c(cc1C)N(CC(O)C(O)C(O)CO)C1=NC(=O)NC(=O)C1=N2",55.194938271435575,"Cc1cc2c(cc1C)n(CC(O)C(O)C(O)CO)c1nc(=O)[nH]c(=O)c1n2",-1.08076,155.04999999999998,376.13828435999994,10,5,5,5,8,3,10,27,47,3,3,1,0,2,0,0,2,1,0,0,0.4117647058823529
"B-292","o-terphenyl",-5.2692,"c1ccc(-c2ccccc2-c2ccccc2)cc1","c1ccc(-c2ccccc2-c2ccccc2)cc1",57.94172176750439,"c1ccc(c2ccccc2c2ccccc2)cc1",5.0206000000000035,0,230.109550448,0,0,2,0,0,0,0,18,32,0,3,3,0,0,0,0,0,3,0,0,0
"B-293","quininone",-5.0313,"C=CC1C[NH+]2CCC1CC2C(=O)c1ccnc2ccc(OC)cc12","C=CC1C[NH+]2CCC1CC2C(=O)c1ccnc2ccc(OC)cc12",68.54342652028268,"C=CC1C[NH+]2CCC1CC2C(=O)c1ccnc2ccc(OC)cc12",1.9053999999999993,43.63000000000001,323.17540439609,4,1,4,1,3,0,4,24,47,4,5,2,3,3,1,3,3,1,0,0,0.4
"B-294","2,6-dihydroxy-anthraquinone",-5.8892,"O=C1c2ccc(O)cc2C(=O)c2ccc(O)cc21","O=C1c2ccc(O)cc2C(=O)c2ccc(O)cc21",27.88754777865902,"O=C1c2ccc(O)cc2C(=O)c2ccc(O)cc12",1.8732,74.6,240.042258736,4,2,0,2,4,0,4,18,26,0,3,2,0,1,0,0,0,2,0,1,0