"ID","Name","Solubility","SMILES Canonical","Smiles (Optimized Geometry)","Energy","Smiles","SlogP","TPSA","ExactMW","NumLipinskiHBA","NumLipinskiHBD","NumRotatableBonds","NumHBD","NumHBA","NumAmideBonds","NumHeteroAtoms","NumHeavyAtoms","NumAtoms","NumStereocenters","NumRings","NumAromaticRings","NumSaturatedRings","NumAliphaticRings","NumAromaticHeterocycles","NumSaturatedHeterocycles","NumAliphaticHeterocycles","NumAromaticCarbocycles","NumSaturatedCarbocycles","NumAliphaticCarbocycles","FractionCSP3"
"A-6027","3-methylbutyl octadec-9-enoate",-8.0701647483,"CCCCCCCCC=CCCCCCCCC(=O)OCCC(C)C","CCCCCCCCC=CCCCCCCCC(=O)OCCC(C)C",-10.079137370153926,"CCCCCCCCC=CCCCCCCCC(=O)OCCC(C)C",7.613200000000009,26.3,352.334130648,2,0,18,0,2,0,2,25,69,0,0,0,0,0,0,0,0,0,0,0,0.8695652173913043
"A-6029","nonafluorobutane-1-sulfonyl fluoride",-6.0423843487,"O=S(=O)(F)C(F)(F)C(F)(F)C(F)(F)C(F)(F)F","O=S(=O)(F)C(F)(F)C(F)(F)C(F)(F)C(F)(F)F",47.093821109667545,"O=S(=O)(F)C(F)(F)C(F)(F)C(F)(F)C(F)(F)F",2.7114,34.14,301.94593244,2,0,3,0,2,0,13,17,17,0,0,0,0,0,0,0,0,0,0,0,1
"A-6030","1,1'-methylenebis(4-fluorobenzene)",-6.9121561366,"Fc1ccc(Cc2ccc(F)cc2)cc1","Fc1ccc(Cc2ccc(F)cc2)cc1",28.356221961248163,"Fc1ccc(Cc2ccc(F)cc2)cc1",3.555600000000002,0,204.07505676,0,0,2,0,0,0,2,15,25,0,2,2,0,0,0,0,0,2,0,0,0.07692307692307693
"A-6033","methyl 3-({4-[(E)-2-(2,4-dinitrophenyl)diazen-1-yl]-3-acetamidophenyl}(3-methoxy-3-oxopropyl)amino)propanoate",-7.3328313355,"COC(=O)CCN(CCC(=O)OC)c1ccc(N=Nc2ccc([N+](=O)[O-])cc2[N+](=O)[O-])c(NC(C)=O)c1","COC(=O)CCN(CCC(=O)OC)c1ccc(N=Nc2ccc([N+](=O)[O-])cc2[N+](=O)[O-])c(NC(C)=O)c1",22.888812783579347,"COC(=O)CCN(CCC(=O)OC)c1ccc(N=Nc2ccc([N+](=O)[O-])cc2[N+](=O)[O-])c(NC(=O)C)c1",3.809400000000002,195.94000000000003,516.160476348,15,1,12,1,12,1,15,37,61,0,2,2,0,0,0,0,0,2,0,0,0.3181818181818182
"A-6036","2,4-di-tert-butylphenyl 3,5-di-tert-butyl-4-hydroxybenzoate",-7.3410901182,"CC(C)(C)c1ccc(OC(=O)c2cc(C(C)(C)C)c(O)c(C(C)(C)C)c2)c(C(C)(C)C)c1","CC(C)(C)c1ccc(OC(=O)c2cc(C(C)(C)C)c(O)c(C(C)(C)C)c2)c(C(C)(C)C)c1",73.50466295959461,"CC(C)(C)c1ccc(OC(=O)c2cc(C(C)(C)C)c(O)c(C(C)(C)C)c2)c(C(C)(C)C)c1",7.80140000000001,46.53,438.31339520399996,3,1,2,1,3,0,3,32,74,0,2,2,0,0,0,0,0,2,0,0,0.5517241379310345
"A-6039","2-ethyl-N,N-bis(2-ethylhexyl)hexan-1-amine",-8.2475792783,"CCCCC(CC)C[NH+](CC(CC)CCCC)CC(CC)CCCC","CCCCC(CC)C[NH+](CC(CC)CCCC)CC(CC)CCCC",17.097354557985604,"CCCCC(CC)C[NH+](CC(CC)CCCC)CC(CC)CCCC",6.520500000000007,4.44,354.40942708409,1,1,18,1,0,0,1,25,77,3,0,0,0,0,0,0,0,0,0,0,1
"A-6040","2,9-Bis(2-phenylethyl)anthra(2,1,9-def:6,5,10-d'e'f')diisoquinoline-1,3,8,10(2H,9H)-tetrone",-8.4761487948,"O=C1c2ccc3c4ccc5c6c(ccc(c7ccc(c2c37)C(=O)N1CCc1ccccc1)c64)C(=O)N(CCc1ccccc1)C5=O","O=C1c2ccc3c4ccc5c6c(ccc(c7ccc(c2c37)C(=O)N1CCc1ccccc1)c64)C(=O)N(CCc1ccccc1)C5=O",41.22621694459606,"O=c1c2ccc3c4ccc5c6c(ccc(c7ccc(c2c37)c(=O)n1CCc1ccccc1)c46)c(=O)n(CCc1ccccc1)c5=O",7.414600000000008,74.76,598.1892573120001,6,0,6,0,4,4,6,46,72,0,9,7,0,2,0,0,2,7,0,0,0.1
"A-6042","2-heptadecyl-1H-imidazole",-7.214642713,"CCCCCCCCCCCCCCCCCc1[nH]cc[nH+]1","CCCCCCCCCCCCCCCCCc1[nH]cc[nH+]1",5.416513390068633,"CCCCCCCCCCCCCCCCCc1[nH]cc[nH+]1",6.242700000000006,29.93,307.31077566809,2,2,16,1,0,0,2,22,61,0,1,1,0,0,1,0,0,0,0,0,0.85
"A-6044","propane-2,2-diylbis(4,1-phenyleneoxypropane-3,1-diyl) bis(2-methylacrylate)",-7.4564753884,"C=C(C)C(=O)OCCCOc1ccc(C(C)(C)c2ccc(OCCCOC(=O)C(=C)C)cc2)cc1","C=C(C)C(=O)OCCCOc1ccc(C(C)(C)c2ccc(OCCCOC(=O)C(=C)C)cc2)cc1",9.675490052257967,"C=C(C)C(=O)OCCCOc1ccc(C(C)(C)c2ccc(OCCCOC(=O)C(=C)C)cc2)cc1",5.788900000000006,71.06,480.2511888719999,6,0,14,0,6,0,6,35,71,0,2,2,0,0,0,0,0,2,0,0,0.3793103448275862
"A-6047","2,2'-[[4-[(3,5-dinitro-2-thienyl)azo]phenyl]imino]bisethyl diacetate",-7.547293505,"CC(=O)OCCN(CCOC(C)=O)c1ccc(N=Nc2sc([N+](=O)[O-])cc2[N+](=O)[O-])cc1","CC(=O)OCCN(CCOC(C)=O)c1ccc(N=Nc2sc([N+](=O)[O-])cc2[N+](=O)[O-])cc1",58.39315549199021,"CC(=O)OCCN(CCOC(=O)C)c1ccc(N=Nc2sc([N+](=O)[O-])cc2[N+](=O)[O-])cc1",3.9125000000000023,166.84,465.09543356800003,13,0,11,0,12,0,14,32,51,0,2,2,0,0,1,0,0,1,0,0,0.3333333333333333
"A-6049","2-[[4-(diethylamino)-2-methylphenyl]azo]-5-nitrobenzene-1,3-dicarbonitrile",-7.4728199696,"CCN(CC)c1ccc(N=Nc2c(C#N)cc([N+](=O)[O-])cc2C#N)c(C)c1","CCN(CC)c1ccc(N=Nc2c(C#N)cc([N+](=O)[O-])cc2C#N)c(C)c1",42.87553152939281,"CCN(CC)c1ccc(N=Nc2c(C#N)cc([N+](=O)[O-])cc2C#N)c(C)c1",4.908180000000004,118.68,362.149123816,8,0,6,0,7,0,8,27,45,0,2,2,0,0,0,0,0,2,0,0,0.2631578947368421
"A-6050","2,3-dihydroxypropyl tetradecanoate",-7.3978753981,"CCCCCCCCCCCCCC(=O)OCC(O)CO","CCCCCCCCCCCCCC(=O)OCC(O)CO",-0.48654452527138314,"CCCCCCCCCCCCCC(=O)OCC(O)CO",3.583900000000002,66.76,302.245709568,4,2,15,2,4,0,4,21,55,1,0,0,0,0,0,0,0,0,0,0,0.9411764705882353
"A-6054","1,2,4-trinonyl benzene-1,2,4-tricarboxylate",-6.757182205,"CCCCCCCCCOC(=O)c1ccc(C(=O)OCCCCCCCCC)c(C(=O)OCCCCCCCCC)c1","CCCCCCCCCOC(=O)c1ccc(C(=O)OCCCCCCCCC)c(C(=O)OCCCCCCCCC)c1",-14.510952824133692,"CCCCCCCCCOC(=O)c1ccc(C(=O)OCCCCCCCCC)c(C(=O)OCCCCCCCCC)c1",10.408799999999994,78.90000000000002,588.4389896399999,6,0,27,0,6,0,6,42,102,0,1,1,0,0,0,0,0,1,0,0,0.75
"A-6057","1-({4-[(9,10-dioxo-9,10-dihydroanthracen-1-yl)amino]-6-phenyl-1,3,5-triazin-2-yl}amino)-9,10-dihydroanthracene-9,10-dione",-7.77786597,"O=C1c2ccccc2C(=O)c2c(Nc3nc(Nc4cccc5c4C(=O)c4ccccc4C5=O)nc(-c4ccccc4)n3)cccc21","O=C1c2ccccc2C(=O)c2c(Nc3nc(Nc4cccc5c4C(=O)c4ccccc4C5=O)nc(-c4ccccc4)n3)cccc21",-30.99891924972189,"O=C1c2ccccc2C(=O)c2c(Nc3nc(Nc4cccc5c4C(=O)c4ccccc4C5=O)nc(c4ccccc4)n3)cccc12",6.576600000000005,131.01,599.159354152,9,2,5,2,9,0,9,46,67,0,8,6,0,2,1,0,0,5,0,2,0
"A-6058","2-cyano-N-methyl-2-[(1E)-3-(2,4,6-trioxo-1,3-diazinan-5-ylidene)-2,3-dihydro-1H-isoindol-1-ylidene]acetamide",-7.5280099033,"CNC(=O)C(C#N)=c1[nH]c(=C2C(=O)NC(=O)NC2=O)c2ccccc12","CNC(=O)C(C#N)=C1NC(=C2C(=O)NC(=O)NC2=O)c2ccccc21",-40.6663676543665,"CNC(=O)C(=c1[nH]c(=C2C(=O)NC(=O)NC2=O)c2ccccc12)C#N",-0.6524199999999993,140.19,337.081103832,9,4,1,4,6,5,9,25,36,0,3,1,1,2,0,1,2,1,0,0,0.0625
"A-6060","5-[3-(2,4,6-trioxo-1,3-diazinan-5-ylidene)-2,3-dihydro-1H-isoindol-1-ylidene]-1,3-diazinane-2,4,6-trione",-7.5649937324,"O=C1NC(=O)C(=c2[nH]c(=C3C(=O)NC(=O)NC3=O)c3ccccc23)C(=O)N1","O=C1NC(=O)C(=C2NC(=C3C(=O)NC(=O)NC3=O)c3ccccc32)C(=O)N1",-76.67604928921784,"O=C1NC(=O)C(=c2[nH]c(=C3C(=O)NC(=O)NC3=O)c3ccccc23)C(=O)N1",-1.5559999999999996,162.57,367.05528300800006,11,5,0,5,7,8,11,27,36,0,4,1,2,3,0,2,3,1,0,0,0
"A-6062","O~15~-acetylretinoic acid",-7.5165300857,"CC(=O)OCC=C(C)C=CC=C(C)C=CC1=C(C)CCCC1(C)C","CC(=O)OCC=C(C)C=CC=C(C)C=CC1=C(C)CCCC1(C)C",5.456156500110385,"CC(=O)OCC=C(C)C=CC=C(C)C=CC1=C(C)CCCC1(C)C",6.081100000000006,26.3,328.240230264,2,0,6,0,2,0,2,24,56,0,1,0,0,1,0,0,0,0,0,1,0.5
"A-6063","O~15~-propionylretinoic acid",-7.5346897392,"CCC(=O)OCC=C(C)C=CC=C(C)C=CC1=C(C)CCCC1(C)C","CCC(=O)OCC=C(C)C=CC=C(C)C=CC1=C(C)CCCC1(C)C",9.339216264324131,"CCC(=O)OCC=C(C)C=CC=C(C)C=CC1=C(C)CCCC1(C)C",6.471200000000007,26.3,342.255880328,2,0,7,0,2,0,2,25,59,0,1,0,0,1,0,0,0,0,0,1,0.5217391304347826
"A-6070","1-(4-Pentylcyclohexyl)-4-propylbenzene",-6.7725704235,"CCCCCC1CCC(c2ccc(CCC)cc2)CC1","CCCCCC1CCC(c2ccc(CCC)cc2)CC1",29.302918703463014,"CCCCCC1CCC(c2ccc(CCC)cc2)CC1",6.493200000000007,0,272.250401024,0,0,7,0,0,0,0,20,52,0,2,1,1,1,0,0,0,1,1,1,0.7
"A-6071","2-(2H-1,2,3-benzotriazol-2-yl)-4,6-bis(2-methylbutan-2-yl)phenol",-8.545917916,"CCC(C)(C)c1cc(-n2nc3ccccc3n2)c(O)c(C(C)(C)CC)c1","CCC(C)(C)c1cc(-n2nc3ccccc3n2)c(O)c(C(C)(C)CC)c1",65.24896577969325,"CCC(C)(C)c1cc(n2nc3ccccc3n2)c(O)c(C(C)(C)CC)c1",5.501300000000006,50.94,351.231062548,4,1,5,1,4,0,4,26,55,0,3,3,0,0,1,0,0,2,0,0,0.45454545454545453
"A-6074","Vat Orange 11",-8.8106451034,"O=c1c2ccccc2c(=O)c2c1ccc1c3ccc4c(=O)c5c(ccc6c7ccc8c(=O)c9ccccc9c(=O)c8c7[nH]c65)c(=O)c4c3[nH]c12","O=C1c2ccccc2C(=O)c2c1ccc1c2[nH]c2c3c(ccc21)C(=O)c1c(ccc2c1[nH]c1c4c(ccc12)C(=O)c1ccccc1C4=O)C3=O",103.46762047995284,"O=C1c2ccccc2C(=O)c2c1ccc1c2[nH]c2c3c(ccc12)C(=O)c1c(ccc2c1[nH]c1c4c(ccc21)C(=O)c1ccccc1C4=O)C3=O",7.281800000000004,133.99999999999997,646.116486296,8,2,0,2,6,0,8,50,68,0,11,8,0,3,2,0,0,6,0,3,0
"A-6079","dodecyl 2-methylprop-2-enoate",-8.4055410062,"C=C(C)C(=O)OCCCCCCCCCCCC","C=C(C)C(=O)OCCCCCCCCCCCC",-17.271446235736434,"C=C(C)C(=O)OCCCCCCCCCCCC",5.026600000000005,26.3,254.2245802,2,0,12,0,2,0,2,18,48,0,0,0,0,0,0,0,0,0,0,0,0.8125
"A-6081","octadecyl 2-methylprop-2-enoate",-8.5296561698,"C=C(C)C(=O)OCCCCCCCCCCCCCCCCCC","C=C(C)C(=O)OCCCCCCCCCCCCCCCCCC",-20.05920252163426,"C=C(C)C(=O)OCCCCCCCCCCCCCCCCCC",7.367200000000008,26.3,338.318480584,2,0,18,0,2,0,2,24,66,0,0,0,0,0,0,0,0,0,0,0,0.8636363636363636
"A-6085","1,8-dihydroxy-4-nitro-5-(phenylamino)-9,10-dihydroanthracene-9,10-dione",-8.6461429905,"O=C1c2c([O-])ccc(Nc3ccccc3)c2C(=O)c2c([N+](=O)[O-])ccc([O-])c21","O=C1c2c([O-])ccc(Nc3ccccc3)c2C(=O)c2c([N+](=O)[O-])ccc([O-])c21",161.1816945523924,"O=C1c2c([O-])ccc(Nc3ccccc3)c2C(=O)c2c([N+](=O)[O-])ccc([O-])c12",2.261,135.43,374.05498319981996,8,1,3,1,7,0,8,28,38,0,4,3,0,1,0,0,0,3,0,1,0
"A-6087","hexadecyl hexadecanoate",-8.7546500954,"CCCCCCCCCCCCCCCCOC(=O)CCCCCCCCCCCCCCC","CCCCCCCCCCCCCCCCOC(=O)CCCCCCCCCCCCCCC",-13.585954927267794,"CCCCCCCCCCCCCCCCOC(=O)CCCCCCCCCCCCCCC",11.492199999999986,26.3,480.49063128800003,2,0,29,0,2,0,2,34,98,0,0,0,0,0,0,0,0,0,0,0,0.96875
"A-6088","4-tert-butyl-2-(5-tert-butyl-2-oxo-2,3-dihydro-1-benzofuran-3-yl)phenyl 3,5-di-tert-butyl-4-hydroxybenzoate",-8.8485126167,"CC(C)(C)c1ccc(OC(=O)c2cc(C(C)(C)C)c(O)c(C(C)(C)C)c2)c(C2C(=O)Oc3ccc(C(C)(C)C)cc32)c1","CC(C)(C)c1ccc(OC(=O)c2cc(C(C)(C)C)c(O)c(C(C)(C)C)c2)c(C2C(=O)Oc3ccc(C(C)(C)C)cc32)c1",106.64540463916364,"CC(C)(C)c1ccc(OC(=O)c2cc(C(C)(C)C)c(O)c(C(C)(C)C)c2)c(C2C(=O)Oc3ccc(C(C)(C)C)cc23)c1",8.852300000000005,72.83,570.334524572,5,1,3,1,5,0,5,42,88,1,4,3,0,1,0,0,1,3,0,0,0.4594594594594595
"A-6091","3-{2-[(3Z)-5-cyano-1,4-dimethyl-2,6-dioxo-1,2,3,6-tetrahydropyridin-3-ylidene]hydrazin-1-yl}phenyl benzenesulfonate",-8.7827162194,"CC1=C(C#N)C(=O)N(C)C(=O)C1=NNc1cccc(OS(=O)(=O)c2ccccc2)c1","CC1=C(C#N)C(=O)N(C)C(=O)C1=NNc1cccc(OS(=O)(=O)c2ccccc2)c1",22.500335956412435,"CC1=C(C#N)C(=O)N(C)C(=O)C1=NNc1cccc(OS(=O)(=O)c2ccccc2)c1",2.06088,128.93,424.08414061199994,9,1,5,1,8,2,10,30,46,0,3,2,0,1,0,0,1,2,0,0,0.1
"A-6094","3-[(2-ethylhexanoyl)oxy]-2,2-bis({[(2-ethylhexanoyl)oxy]methyl})propyl 2-ethylhexanoate",-9.2047594175,"CCCCC(CC)C(=O)OCC(COC(=O)C(CC)CCCC)(COC(=O)C(CC)CCCC)COC(=O)C(CC)CCCC","CCCCC(CC)C(=O)OCC(COC(=O)C(CC)CCCC)(COC(=O)C(CC)CCCC)COC(=O)C(CC)CCCC",-38.33246848342163,"CCCCC(CC)C(=O)OCC(COC(=O)C(CC)CCCC)(COC(=O)C(CC)CCCC)COC(=O)C(CC)CCCC",9.011200000000004,105.20000000000002,640.4914191359999,8,0,28,0,8,0,8,45,113,4,0,0,0,0,0,0,0,0,0,0,0.8918918918918919
"A-6105","1,1'-[iminobis(ethyleneiminoethylene)]bis[3-(octadecenyl)pyrrolidine-2,5-dione]",-10.2347171749,"CCCCCCCCCCCCCCCCCCC1CC(=O)N(CCNCCNCC[NH2+]CCN2C(=O)CC(CCCCCCCCCCCCCCCCCC)C2=O)C1=O","CCCCCCCCCCCCCCCCCCC1CC(=O)N(CCNCCNCC[NH2+]CCN2C(=O)CC(CCCCCCCCCCCCCCCCCC)C2=O)C1=O",-93.5049788830932,"CCCCCCCCCCCCCCCCCCC1CC(=O)N(CCNCCNCC[NH2+]CCN2C(=O)CC(CCCCCCCCCCCCCCCCCC)C2=O)C1=O",10.78239999999999,115.42999999999998,858.7769831000901,9,4,46,3,6,4,9,61,161,2,2,0,2,2,0,2,2,0,0,0,0.9230769230769231
"B-1","3-pentyl nitrate",-2.4522,"CCC(CC)O[N+](=O)[O-]","CCC(CC)O[N+](=O)[O-]",-14.592004660509607,"CCC(CC)O[N+](=O)[O-]",1.3833,52.370000000000005,133.073893212,4,0,4,0,3,0,4,9,20,0,0,0,0,0,0,0,0,0,0,0,1
"B-4","hydroxyphenamate",-0.9227,"CCC(O)(COC(N)=O)c1ccccc1","CCC(O)(COC(N)=O)c1ccccc1",18.95991688273669,"CCC(O)(COC(=O)N)c1ccccc1",1.3795000000000002,72.55000000000001,209.10519334,4,3,4,2,3,1,4,15,30,1,1,1,0,0,0,0,0,1,0,0,0.36363636363636365
"B-6","estradiol",-4.8789,"C[C@]12CC[C@@H]3c4ccc(O)cc4CC[C@H]3[C@@H]1CC[C@@H]2O","C[C@]12CC[C@@H]3c4ccc(O)cc4CC[C@H]3[C@@H]1CC[C@@H]2O",53.026649680570834,"C[C@]12CC[C@@H]3c4ccc(O)cc4CC[C@H]3[C@@H]1CC[C@@H]2O",3.6092000000000026,40.46,272.177630008,2,2,0,2,2,0,2,20,44,5,4,1,2,3,0,0,0,1,2,3,0.6666666666666666
"B-9","thalidomide",-2.6758,"O=C1CCC(N2C(=O)c3ccccc3C2=O)C(=O)N1","O=C1CCC(N2C(=O)c3ccccc3C2=O)C(=O)N1",-32.43490227039385,"O=C1CCC(N2C(=O)c3ccccc3C2=O)C(=O)N1",0.08779999999999993,83.55000000000001,258.0640568,6,1,1,1,4,4,6,19,29,1,3,1,1,2,0,1,2,1,0,0,0.23076923076923078
"B-13","reserpine",-3.9208,"COC(=O)[C@H]1[C@H]2C[C@@H]3c4[nH]c5cc(OC)ccc5c4CC[NH+]3C[C@H]2C[C@@H](OC(=O)c2cc(OC)c(OC)c(OC)c2)[C@@H]1OC","COC(=O)[C@H]1[C@H]2C[C@@H]3c4[nH]c5cc(OC)ccc5c4CC[NH+]3C[C@H]2C[C@@H](OC(=O)c2cc(OC)c(OC)c(OC)c2)[C@@H]1OC",66.7302667241878,"COC(=O)[C@H]1[C@H]2C[C@@H]3c4[nH]c5cc(OC)ccc5c4CC[NH+]3C[C@H]2C[C@@H](OC(=O)c2cc(OC)c(OC)c(OC)c2)[C@@H]1OC",2.7540000000000013,118.98000000000002,609.2806573120899,11,2,8,2,9,0,11,44,85,7,6,3,2,3,1,1,2,2,1,1,0.5151515151515151
"B-15","5-hydroxytryptamine",-0.945,"[NH3+]CCc1c[nH]c2ccc(O)cc12","[NH3+]CCc1c[nH]c2ccc(O)cc12",10.04014584761985,"[NH3+]CCc1c[nH]c2ccc(O)cc12",0.6579000000000002,63.66,177.10223945609,3,5,2,3,1,0,3,13,26,0,2,2,0,0,1,0,0,1,0,0,0.2
"B-25","epinephrine",-3.0077,"C[NH2+]C[C@H](O)c1ccc(O)c(O)c1","C[NH2+]C[C@H](O)c1ccc(O)c(O)c1",17.016754538875922,"C[NH2+]C[C@H](O)c1ccc(O)c(O)c1",-0.6755999999999998,77.30000000000001,184.09681972809,4,5,3,4,3,0,4,13,27,1,1,1,0,0,0,0,0,1,0,0,0.3333333333333333
"B-26","propylthiouracil",-2.1504,"CCCc1cc(=O)[nH]c(=S)[nH]1","CCCC1=CC(=O)NC(=S)N1",-8.041881728318376,"CCCc1cc(=O)[nH]c(=S)[nH]1",0.6747000000000001,41.13,170.05138394,3,2,2,2,2,1,4,11,21,0,1,0,0,1,0,0,1,0,0,0,0.42857142857142855
"B-29","norethindrone acetate",-4.8041,"C#C[C@]1(OC(C)=O)CC[C@H]2[C@@H]3CCC4=CC(=O)CC[C@@H]4[C@H]3CC[C@@]21C","C#C[C@]1(OC(C)=O)CC[C@H]2[C@@H]3CCC4=CC(=O)CC[C@@H]4[C@H]3CC[C@@]21C",40.483887214145014,"C#C[C@]1(OC(=O)C)CC[C@H]2[C@@H]3CCC4=CC(=O)CC[C@@H]4[C@H]3CC[C@]12C",4.0633000000000035,43.370000000000005,340.20384475599997,3,0,1,0,3,0,3,25,53,6,4,0,3,4,0,0,0,0,3,4,0.7272727272727273
"B-30","spironolactone",-4.2773,"CC(=O)S[C@@H]1CC2=CC(=O)CC[C@]2(C)[C@H]2CC[C@@]3(C)[C@@H](CC[C@@]34CCC(=O)O4)[C@@H]21","CC(=O)S[C@@H]1CC2=CC(=O)CC[C@]2(C)[C@H]2CC[C@@]3(C)[C@@H](CC[C@@]34CCC(=O)O4)[C@@H]21",49.80405282987158,"CC(=O)S[C@@H]1CC2=CC(=O)CC[C@]2(C)[C@H]2CC[C@@]3(C)[C@@H](CC[C@]43CCC(=O)O4)[C@H]12",4.852300000000005,60.44,416.2021305039999,4,0,1,0,5,0,5,29,61,7,5,0,4,5,0,1,1,0,3,4,0.7916666666666666
"B-31","thiotepa",0.0018,"S=P(N1CC1)(N1CC1)N1CC1","S=P(N1CC1)(N1CC1)N1CC1",-83.77117869082686,"S=P(N1CC1)(N1CC1)N1CC1",0.15770000000000017,9.03,189.04895501399997,3,0,3,0,1,0,5,11,23,0,3,0,3,3,0,3,3,0,0,0,1
"B-34","cysteine",0.3597,"[NH3+]C(CS)C(=O)[O-]","[NH3+]C(CS)C(=O)[O-]",-91.24230455784,"[NH3+]C(CS)C(=O)[O-]",-2.7233999999999994,67.77,121.019749464,3,3,2,2,3,0,4,7,14,1,0,0,0,0,0,0,0,0,0,0,0.6666666666666666
"B-40","nicotine",0.7898,"C[NH+]1CCC[C@H]1c1cccnc1","C[NH+]1CCC[C@H]1c1cccnc1",-0.07677484123008549,"C[NH+]1CCC[C@H]1c1cccnc1",0.4311999999999996,17.330000000000002,163.12297490009,2,1,1,1,1,0,2,12,27,2,2,1,1,1,1,1,1,0,0,0,0.5
"B-44","4-dimethylamino-3'-methylazobenzene",-5.7769,"Cc1cccc(N=Nc2ccc(N(C)C)cc2)c1","Cc1cccc(N=Nc2ccc(N(C)C)cc2)c1",64.35937224092625,"Cc1cccc(N=Nc2ccc(N(C)C)cc2)c1",4.4764200000000045,27.96,239.14224754399999,3,0,3,0,3,0,3,18,35,0,2,2,0,0,0,0,0,2,0,0,0.2
"B-45","isoflurophate",-1.0777,"CC(C)OP(=O)(F)OC(C)C","CC(C)OP(=O)(F)OC(C)C",-51.49856168506486,"CC(C)OP(=O)(F)OC(C)C",2.9140000000000015,35.53,184.066459158,3,0,4,0,3,0,5,11,25,0,0,0,0,0,0,0,0,0,0,0,1
"B-46","metacil",-2.4259,"Cc1cc(=O)[nH]c(=S)[nH]1","CC1=CC(=O)NC(=S)N1",-7.92029201724249,"Cc1cc(=O)[nH]c(=S)[nH]1",-0.10550000000000004,41.13,142.020083812,3,2,0,2,2,1,4,9,15,0,1,0,0,1,0,0,1,0,0,0,0.2
"B-47","4-aminobutyric acid",1.1006,"[NH3+]CCCC(=O)[O-]","[NH3+]CCCC(=O)[O-]",-93.53775285341769,"[NH3+]CCCC(=O)[O-]",-2.241599999999999,67.77,103.063328528,3,3,3,1,2,0,3,7,16,0,0,0,0,0,0,0,0,0,0,0,0.75
"B-50","adenosine triphosphate",0.2948,"Nc1ncnc2c1ncn2C1OC(COP(=O)([O-])OP(=O)([O-])OP(=O)([O-])[O-])C(O)C1O","Nc1ncnc2c1ncn2C1OC(COP(=O)([O-])OP(=O)([O-])OP(=O)([O-])[O-])C(O)C1O",30.96472323002285,"Nc1ncnc2c1ncn2C1OC(COP(=O)([O-])OP(=O)([O-])OP(=O)([O-])[O-])C(O)C1O",-4.156999999999998,290.45,502.9666396536398,18,4,8,3,18,0,21,31,43,6,3,2,1,1,2,1,1,0,0,0,0.5
"B-56","lysine",0.8351,"[NH3+]CCCCC([NH3+])C(=O)[O-]","[NH3+]CCCCC([NH3+])C(=O)[O-]",-92.19278154640364,"[NH3+]CCCCC([NH3+])C(=O)[O-]",-3.2409999999999988,95.41,147.11280414009,4,6,5,2,2,0,4,10,25,1,0,0,0,0,0,0,0,0,0,0,0.8333333333333334
"B-58","glycerophosphoric acid",0.7643,"O=P([O-])([O-])OCC(O)CO","O=P([O-])([O-])OCC(O)CO",-63.904895024795195,"O=P([O-])([O-])OCC(O)CO",-2.8150999999999997,112.88000000000001,169.99912173382,6,2,4,2,6,0,7,10,17,1,0,0,0,0,0,0,0,0,0,0,1
"B-63","demerol",-1.8861,"CCOC(=O)C1(c2ccccc2)CC[NH+](C)CC1","CCOC(=O)C1(c2ccccc2)CC[NH+](C)CC1",5.4856686775195795,"CCOC(=O)C1(c2ccccc2)CC[NH+](C)CC1",0.796,30.740000000000002,248.16450536409,3,1,3,1,2,0,3,18,40,0,2,1,1,1,0,1,1,1,0,0,0.5333333333333333
"B-68","ethinyl estradiol",-4.4192,"C#C[C@]1(O)CC[C@H]2[C@@H]3CCc4cc(O)ccc4[C@H]3CC[C@@]21C","C#C[C@]1(O)CC[C@H]2[C@@H]3CCc4cc(O)ccc4[C@H]3CC[C@@]21C",57.013767538540016,"C#C[C@]1(O)CC[C@H]2[C@@H]3CCc4cc(O)ccc4[C@H]3CC[C@]12C",3.6126000000000023,40.46,296.177630008,2,2,0,2,2,0,2,22,46,5,4,1,2,3,0,0,0,1,2,3,0.6
"B-69","sulfanilyl guanadine",-1.9885,"NC(N)=NS(=O)(=O)c1ccc(N)cc1","NC(N)=NS(=O)(=O)c1ccc(N)cc1",-35.88832460329721,"NC(=NS(=O)(=O)c1ccc(N)cc1)N",-0.7690999999999999,124.55999999999999,214.05244656,6,6,2,3,3,0,7,14,24,0,1,1,0,0,0,0,0,1,0,0,0
"B-71","testosterone propionate",-5.3669,"CCC(=O)O[C@H]1CC[C@H]2[C@@H]3CCC4=CC(=O)CC[C@]4(C)[C@H]3CC[C@]12C","CCC(=O)O[C@H]1CC[C@H]2[C@@H]3CCC4=CC(=O)CC[C@]4(C)[C@H]3CC[C@]12C",43.850435605347286,"CCC(=O)O[C@H]1CC[C@H]2[C@@H]3CCC4=CC(=O)CC[C@]4(C)[C@H]3CC[C@]12C",4.840100000000005,43.370000000000005,344.23514488399996,3,0,2,0,3,0,3,25,57,6,4,0,3,4,0,0,0,0,3,4,0.8181818181818182
"B-73","a-estradiol",-4.8441,"C[C@]12CC[C@@H]3c4ccc(O)cc4CC[C@H]3[C@@H]1CC[C@H]2O","C[C@]12CC[C@@H]3c4ccc(O)cc4CC[C@H]3[C@@H]1CC[C@H]2O",53.308009665025004,"C[C@]12CC[C@@H]3c4ccc(O)cc4CC[C@H]3[C@@H]1CC[C@H]2O",3.6092000000000026,40.46,272.177630008,2,2,0,2,2,0,2,20,44,5,4,1,2,3,0,0,0,1,2,3,0.6666666666666666
"B-80","nikethamide",0.749,"CCN(CC)C(=O)c1cccnc1","CCN(CC)C(=O)c1cccnc1",4.0944528814928285,"CCN(CC)C(=O)c1cccnc1",1.5636,33.2,178.110613068,3,0,3,0,2,1,3,13,27,0,1,1,0,0,1,0,0,0,0,0,0.4
"B-81","2-(1h)-quinolinone",-2.1394,"O=c1ccc2ccccc2[nH]1","O=C1C=Cc2ccccc2N1",22.952655508323744,"O=c1ccc2ccccc2[nH]1",1.6519000000000001,29.1,145.052763844,2,1,0,1,1,1,2,11,18,0,2,1,0,1,0,0,1,1,0,0,0
"B-82","sulfaquinoxaline",-4.6026,"Nc1ccc(S(=O)(=O)Nc2cnc3ccccc3n2)cc1","Nc1ccc(S(=O)(=O)Nc2cnc3ccccc3n2)cc1",51.953529656723525,"Nc1ccc(S(=O)(=O)Nc2cnc3ccccc3n2)cc1",2.0128,97.97,300.068096624,6,3,3,2,5,0,7,21,33,0,3,3,0,0,1,0,0,2,0,0,0
"B-84","1,2-propanediol-3-(2-tolyloxy)",-1.1887,"Cc1ccccc1OCC(O)CO","Cc1ccccc1OCC(O)CO",29.819393251710462,"Cc1ccccc1OCC(O)CO",0.7270199999999998,49.69,182.094294308,3,2,4,2,3,0,3,13,27,1,1,1,0,0,0,0,0,1,0,0,0.4
"B-86","dl-methionine",-0.6593,"CSCCC([NH3+])C(=O)[O-]","CSCCC([NH3+])C(=O)[O-]",-84.00924057530551,"CSCCC([NH3+])C(=O)[O-]",-1.9000999999999983,67.77,149.051049592,3,3,4,1,3,0,4,9,20,1,0,0,0,0,0,0,0,0,0,0,0.8
"B-87","1-propanol, 2,3-dimercapto-",-0.1547,"OCC(S)CS","OCC(S)CS",8.76597925914168,"OCC(S)CS",0.20690000000000003,20.23,124.001656876,1,1,2,3,3,0,3,6,14,1,0,0,0,0,0,0,0,0,0,0,1
"B-88","a-glucose-1-phosphate",0.5848,"O=P([O-])([O-])OC1OC(CO)C(O)C(O)C1O","O=P([O-])([O-])OC1OC(CO)C(O)C(O)C1O",-62.18496498222443,"O=P([O-])([O-])OC1OC(CO)C(O)C(O)C1O",-4.368399999999998,162.57,258.01516572182004,9,4,3,4,9,0,10,16,27,5,1,0,1,1,0,1,1,0,0,0,1
"B-89","n-nitrosomorpholine",0.9351,"O=NN1CCOCC1","O=NN1CCOCC1",34.26344613478385,"O=NN1CCOCC1",0,41.900000000000006,116.058577496,4,0,1,0,3,0,4,8,16,0,1,0,1,1,0,1,1,0,0,0,1
"B-90","dopa",-1.5959,"[NH3+]C(Cc1ccc(O)c(O)c1)C(=O)[O-]","[NH3+]C(Cc1ccc(O)c(O)c1)C(=O)[O-]",-63.450897031738855,"[NH3+]C(Cc1ccc(O)c(O)c1)C(=O)[O-]",-1.999300000000001,108.23000000000002,197.068807832,5,5,3,3,4,0,5,14,25,1,1,1,0,0,0,0,0,1,0,0,0.2222222222222222