"ID","Name","Solubility","SMILES Canonical","Smiles (Optimized Geometry)","Energy","Smiles","SlogP","TPSA","ExactMW","NumLipinskiHBA","NumLipinskiHBD","NumRotatableBonds","NumHBD","NumHBA","NumAmideBonds","NumHeteroAtoms","NumHeavyAtoms","NumAtoms","NumStereocenters","NumRings","NumAromaticRings","NumSaturatedRings","NumAliphaticRings","NumAromaticHeterocycles","NumSaturatedHeterocycles","NumAliphaticHeterocycles","NumAromaticCarbocycles","NumSaturatedCarbocycles","NumAliphaticCarbocycles","FractionCSP3"
"A-416","1,3-bis(2-methylphenyl)guanidine",-3.5338845835,"Cc1ccccc1NC(N)=[NH+]c1ccccc1C","Cc1ccccc1NC(N)=[NH+]c1ccccc1C",30.512719405035785,"Cc1ccccc1NC(=[NH+]c1ccccc1C)N",1.44234,52.019999999999996,240.14952399608998,3,4,2,3,0,0,3,18,36,0,2,2,0,0,0,0,0,2,0,0,0.13333333333333333
"A-420","2-ethylpentyl 3-(3,5-ditert-butyl-4-hydroxyphenyl)propanoate",-7.0987371496,"CCCC(CC)COC(=O)CCc1cc(C(C)(C)C)c(O)c(C(C)(C)C)c1","CCCC(CC)COC(=O)CCc1cc(C(C)(C)C)c(O)c(C(C)(C)C)c1",12.92703553899349,"CCCC(CC)COC(=O)CCc1cc(C(C)(C)C)c(O)c(C(C)(C)C)c1",6.289300000000009,46.53,376.29774513999996,3,1,8,1,3,0,3,27,67,1,1,1,0,0,0,0,0,1,0,0,0.7083333333333334
"A-421","Longifolene",-4.4127624272,"C=C1C2CCC3C2C(C)(C)CCCC13C","C=C1C2CCC3C2C(C)(C)CCCC13C",49.22405985669283,"C=C1C2CCC3C2C(C)(C)CCCC13C",4.415000000000004,0,204.187800768,0,0,0,0,0,0,0,15,39,4,3,0,3,3,0,0,0,0,3,3,0.8666666666666667
"A-422","2-phenylethyl 2-hydroxybenzoate",-4.4891053349,"O=C(OCCc1ccccc1)c1ccccc1O","O=C(OCCc1ccccc1)c1ccccc1O",26.22131178475917,"O=C(OCCc1ccccc1)c1ccccc1O",2.791700000000002,46.53,242.094294308,3,1,4,1,3,0,3,18,32,0,2,2,0,0,0,0,0,2,0,0,0.13333333333333333
"A-425","propane-1,2-diyl dibenzoate",-4.5673029377,"CC(COC(=O)c1ccccc1)OC(=O)c1ccccc1","CC(COC(=O)c1ccccc1)OC(=O)c1ccccc1",24.488632935516165,"CC(COC(=O)c1ccccc1)OC(=O)c1ccccc1",3.0889000000000015,52.6,284.104858992,4,0,5,0,4,0,4,21,37,1,2,2,0,0,0,0,0,2,0,0,0.17647058823529413
"A-427","2-(2-methylbutan-2-yl)cyclohexyl acetate",-4.4462039036,"CCC(C)(C)C1CCCCC1OC(C)=O","CCC(C)(C)C1CCCCC1OC(C)=O",10.69934420010092,"CCC(C)(C)C1CCCCC1OC(=O)C",3.544500000000003,26.3,212.177630008,2,0,3,0,2,0,2,15,39,2,1,0,1,1,0,0,0,0,1,1,0.9230769230769231
"A-429","2-cyclohexylidene-2-phenylacetonitrile",-4.4200239973,"N#CC(=C1CCCCC1)c1ccccc1","N#CC(=C1CCCCC1)c1ccccc1",42.43790693316417,"N#CC(=C1CCCCC1)c1ccccc1",3.9278800000000027,23.79,197.12044948,1,0,1,0,1,0,1,15,30,0,2,1,1,1,0,0,0,1,1,1,0.35714285714285715
"A-432","1,1'-ethane-1,2-diylbis(4-nitrobenzene)",-4.5898858002,"O=[N+]([O-])c1ccc(CCc2ccc([N+](=O)[O-])cc2)cc1","O=[N+]([O-])c1ccc(CCc2ccc([N+](=O)[O-])cc2)cc1",46.45190259070935,"O=[N+]([O-])c1ccc(CCc2ccc([N+](=O)[O-])cc2)cc1",3.2882000000000016,86.28,272.079706864,6,0,5,0,4,0,6,20,32,0,2,2,0,0,0,0,0,2,0,0,0.14285714285714285
"A-433","4-(2,4,4-trimethylpentan-2-yl)phenol",-4.4694622333,"CC(C)(C)CC(C)(C)c1ccc(O)cc1","CC(C)(C)CC(C)(C)c1ccc(O)cc1",27.538154761541705,"CC(C)(C)CC(C)(C)c1ccc(O)cc1",4.106000000000003,20.23,206.167065324,1,1,2,1,1,0,1,15,37,0,1,1,0,0,0,0,0,1,0,0,0.5714285714285714
"A-434","4-nonylphenol",-4.4980268403,"CCCCCCCCCc1ccc(O)cc1","CCCCCCCCCc1ccc(O)cc1",13.922201170253377,"CCCCCCCCCc1ccc(O)cc1",4.685300000000005,20.23,220.182715388,1,1,8,1,1,0,1,16,40,0,1,1,0,0,0,0,0,1,0,0,0.6
"A-435","N-(4-carbamoylphenyl)-4-methoxy-3-nitrobenzamide",-4.6536052692,"COc1ccc(C(=O)Nc2ccc(C(N)=O)cc2)cc1[N+](=O)[O-]","COc1ccc(C(=O)Nc2ccc(C(N)=O)cc2)cc1[N+](=O)[O-]",59.21466794675592,"COc1ccc(C(=O)Nc2ccc(C(=O)N)cc2)cc1[N+](=O)[O-]",1.9546,124.56,315.085520516,8,3,5,2,5,2,8,23,36,0,2,2,0,0,0,0,0,2,0,0,0.06666666666666667
"A-447","(2E)-3,7-dimethylocta-2,6-dien-1-ol",-2.3519095035,"CC(C)=CCCC(C)=CCO","CC(C)=CCCC(C)=CCO",14.584645946646893,"CC(=CCCC(=CCO)C)C",2.6714000000000016,20.23,154.135765196,1,1,4,1,1,0,1,11,29,0,0,0,0,0,0,0,0,0,0,0,0.6
"A-451","1,2-dimethoxybenzene",-1.3149750669,"COc1ccccc1OC","COc1ccccc1OC",31.97949694888685,"COc1ccccc1OC",1.7038,18.46,138.06807956,2,0,2,0,2,0,2,10,20,0,1,1,0,0,0,0,0,1,0,0,0.25
"A-454","tris(2-butoxyethyl) phosphate",-2.7785623319,"CCCCOCCOP(=O)(OCCOCCCC)OCCOCCCC","CCCCOCCOP(=O)(OCCOCCCC)OCCOCCCC",-59.6890085593355,"CCCCOCCOP(=O)(OCCOCCCC)OCCOCCCC",4.594400000000005,72.45000000000002,398.243340218,7,0,21,0,7,0,8,26,65,0,0,0,0,0,0,0,0,0,0,0,1
"A-457","1-methoxyhexane",-2.2450853258,"CCCCCCOC","CCCCCCOC",-0.4366517225863077,"CCCCCCOC",2.2131,9.23,116.120115132,1,0,5,0,1,0,1,8,24,0,0,0,0,0,0,0,0,0,0,0,1
"A-461","Betamethasone",-3.7709815003,"C[C@H]1C[C@H]2[C@@H]3CCC4=CC(=O)C=C[C@]4(C)[C@@]3(F)[C@@H](O)C[C@]2(C)[C@@]1(O)C(=O)CO","C[C@H]1C[C@H]2[C@@H]3CCC4=CC(=O)C=C[C@]4(C)[C@@]3(F)[C@@H](O)C[C@]2(C)[C@@]1(O)C(=O)CO",116.78005260214941,"C[C@H]1C[C@H]2[C@@H]3CCC4=CC(=O)C=C[C@]4(C)[C@@]3(F)[C@@H](O)C[C@]2(C)[C@@]1(O)C(=O)CO",1.8957000000000002,94.83,392.19990224799994,5,3,2,3,5,0,6,28,57,8,4,0,3,4,0,0,0,0,3,4,0.7272727272727273
"A-463","3-(4-isopropylphenyl)-2-methylpropanal",-3.4598629014,"CC(C)c1ccc(C(C)CC=O)cc1","CC(C)c1ccc(C(C)CC=O)cc1",16.682283827480052,"CC(C)c1ccc(C(C)CC=O)cc1",3.502500000000002,17.07,190.135765196,1,0,4,0,1,0,1,14,32,1,1,1,0,0,0,0,0,1,0,0,0.46153846153846156
"A-465","(2,4,6-trimethylcyclohex-3-en-1-yl)methanol",-2.3711973931,"CC1=CC(C)C(CO)C(C)C1","CC1=CC(C)C(CO)C(C)C1",11.723850558549845,"CC1=CC(C)C(CO)C(C)C1",2.2171000000000003,20.23,154.135765196,1,1,1,1,1,0,1,11,29,3,1,0,0,1,0,0,0,0,0,1,0.8
"A-466","3,7-dimethylnona-1,6-dien-3-ol",-2.409128664,"C=CC(C)(O)CCC=C(C)CC","C=CC(C)(O)CCC=C(C)CC",1.8335432132060705,"C=CC(C)(O)CCC=C(C)CC",3.0599000000000016,20.23,168.15141526,1,1,5,1,1,0,1,12,32,1,0,0,0,0,0,0,0,0,0,0,0.6363636363636364
"A-467","tris(oxiran-2-ylmethyl) benzene-1,2,4-tricarboxylate",-2.7622964758,"O=C(OCC1CO1)c1ccc(C(=O)OCC2CO2)c(C(=O)OCC2CO2)c1","O=C(OCC1CO1)c1ccc(C(=O)OCC2CO2)c(C(=O)OCC2CO2)c1",-17.746849461924267,"O=C(OCC1CO1)c1ccc(C(=O)OCC2CO2)c(C(=O)OCC2CO2)c1",0.35339999999999994,116.49,378.09508215599993,9,0,9,0,9,0,9,27,45,3,4,1,3,3,0,3,3,1,0,0,0.5
"A-468","2,4-dimethyl-4-phenyltetrahydrofuran",-2.4332379452,"CC1CC(C)(c2ccccc2)CO1","CC1CC(C)(c2ccccc2)CO1",27.544395253859506,"CC1CC(C)(c2ccccc2)CO1",2.7531000000000008,9.23,176.120115132,1,0,1,0,1,0,1,13,29,2,2,1,1,1,0,1,1,1,0,0,0.5
"A-469","ethyl 2-ethylhexanoate",-3.423291255,"CCCCC(CC)C(=O)OCC","CCCCC(CC)C(=O)OCC",-8.974542526643697,"CCCCC(CC)C(=O)OCC",2.765900000000001,26.3,172.14632988,2,0,6,0,2,0,2,12,32,1,0,0,0,0,0,0,0,0,0,0,0.9
"A-470","quinolin-8-ol",-2.3496052546,"Oc1cccc2cccnc12","Oc1cccc2cccnc12",32.12684712868567,"Oc1cccc2cccnc12",1.9403999999999995,33.120000000000005,145.052763844,2,1,0,1,2,0,2,11,18,0,2,2,0,0,1,0,0,1,0,0,0
"A-475","1,2-diethoxybenzene",-2.41045076,"CCOc1ccccc1OCC","CCOc1ccccc1OCC",31.64726394504156,"CCOc1ccccc1OCC",2.484000000000001,18.46,166.099379688,2,0,4,0,2,0,2,12,26,0,1,1,0,0,0,0,0,1,0,0,0.4
"A-477","D-erythro-pentitol",0.6252744891,"OCC(O)C(O)C(O)CO","OCC(O)C(O)C(O)CO",18.52377738261965,"OCC(O)C(O)C(O)CO",-2.9463000000000004,101.15,152.068473484,5,5,4,5,5,0,5,10,22,2,0,0,0,0,0,0,0,0,0,0,1
"A-481","(Z)-N-(3-aminopropyl)-N'-[3-(9-octadecenylamino)propyl]propane-1,3-diamine",-3.8360757577,"CCCCCCCCC=CCCCCCCCC[NH2+]CCC[NH2+]CCC[NH2+]CCC[NH3+]","CCCCCCCCC=CCCCCCCCC[NH2+]CCC[NH2+]CCC[NH2+]CCC[NH3+]",225.5794785615421,"CCCCCCCCC=CCCCCCCCC[NH2+]CCC[NH2+]CCC[NH2+]CCC[NH3+]",2.1263000000000067,77.47,442.4952536643601,4,9,27,4,0,0,4,31,93,0,0,0,0,0,0,0,0,0,0,0,0.9259259259259259
"A-482","3,7-dimethyloctan-1-ol",-3.3932597866,"CC(C)CCCC(C)CCO","CC(C)CCCC(C)CCO",3.483491011090893,"CC(C)CCCC(C)CCO",2.831200000000002,20.23,158.167065324,1,1,6,1,1,0,1,11,33,1,0,0,0,0,0,0,0,0,0,0,1
"A-485","1-phenylethan-1-one",-1.2803868403,"CC(=O)c1ccccc1","CC(=O)c1ccccc1",18.15882052053388,"CC(=O)c1ccccc1",1.8892,17.07,120.057514876,1,0,1,0,1,0,1,9,17,0,1,1,0,0,0,0,0,1,0,0,0.125
"A-487","(3E)-4-methyldec-3-en-5-ol",-3.4318638977,"CCC=C(C)C(O)CCCCC","CCC=C(C)C(O)CCCCC",4.159322119781036,"CCC=C(C)C(O)CCCCC",3.283900000000002,20.23,170.167065324,1,1,6,1,1,0,1,12,34,1,0,0,0,0,0,0,0,0,0,0,0.8181818181818182
"A-488","butyl butanoate",-2.3610477791,"CCCCOC(=O)CCC","CCCCOC(=O)CCC",-11.133477464793287,"CCCCOC(=O)CCC",2.1298000000000004,26.3,144.115029752,2,0,5,0,2,0,2,10,26,0,0,0,0,0,0,0,0,0,0,0,0.875
"A-491","benzene-1,2-dicarboxylic acid",-1.4245732761,"O=C([O-])c1ccccc1C(=O)[O-]","O=C([O-])c1ccccc1C(=O)[O-]",98.48782380856812,"O=C([O-])c1ccccc1C(=O)[O-]",-1.5864000000000003,80.25999999999999,164.01205576782002,4,0,2,0,4,0,4,12,16,0,1,1,0,0,0,0,0,1,0,0,0
"A-492","octahydro-1H-4,7-methanoindene-1-carbaldehyde",-2.4199676473,"O=CC1CCC2C3CCC(C3)C12","O=CC1CCC2C3CCC(C3)C12",33.009026958503505,"O=CC1CCC2C3CCC(C3)C12",2.2576,17.07,164.120115132,1,0,1,0,1,0,1,12,28,5,3,0,3,3,0,0,0,0,3,3,0.9090909090909091
"A-494","2,6-dimethylphenol",-1.292396158,"Cc1cccc(C)c1O","Cc1cccc(C)c1O",11.714763398682075,"Cc1cccc(C)c1O",2.00904,20.23,122.07316494,1,1,0,1,1,0,1,9,19,0,1,1,0,0,0,0,0,1,0,0,0.25
"A-496","1-phenylpropan-1-ol",-2.3403675905,"CCC(O)c1ccccc1","CCC(O)c1ccccc1",18.201784545095414,"CCC(O)c1ccccc1",2.13,20.23,136.088815004,1,1,2,1,1,0,1,10,22,1,1,1,0,0,0,0,0,1,0,0,0.3333333333333333
"A-497","1-[3-(trifluoromethyl)phenyl]ethan-1-one",-2.4821079167,"CC(=O)c1cccc(C(F)(F)F)c1","CC(=O)c1cccc(C(F)(F)F)c1",21.37141415444259,"CC(=O)c1cccc(C(F)(F)F)c1",2.9080000000000013,17.07,188.044899504,1,0,1,0,1,0,4,13,20,0,1,1,0,0,0,0,0,1,0,0,0.2222222222222222
"A-499","1,7,7-trimethylbicyclo[2.2.1]hept-2-yl acetate",-3.4963238418,"CC(=O)O[C@@H]1C[C@@H]2CC[C@@]1(C)C2(C)C","CC(=O)O[C@@H]1C[C@@H]2CC[C@@]1(C)C2(C)C",28.061713537732782,"CC(=O)O[C@@H]1C[C@@H]2CC[C@@]1(C)C2(C)C",2.7643000000000013,26.3,196.14632988,2,0,1,0,2,0,2,14,34,3,2,0,2,2,0,0,0,0,2,2,0.9166666666666666
"A-500","4-[4-(hydrazinesulfonyl)phenoxy]benzene-1-sulfonohydrazide",-3.7584891954,"NNS(=O)(=O)c1ccc(Oc2ccc(S(=O)(=O)NN)cc2)cc1","NNS(=O)(=O)c1ccc(Oc2ccc(S(=O)(=O)NN)cc2)cc1",28.866585528773406,"NNS(=O)(=O)c1ccc(Oc2ccc(S(=O)(=O)NN)cc2)cc1",-0.2170999999999994,153.61,358.040561548,9,6,6,4,7,0,11,23,37,0,2,2,0,0,0,0,0,2,0,0,0
"A-503","Alkenes, C9-11, C10-rich",-3.34190657,"C=CC=CCCC=CCC","C=CC=CCCC=CCC",0.8975337312522147,"C=CC=CCCC=CCC",3.4750000000000023,0,136.125200512,0,0,5,0,0,0,0,10,26,0,0,0,0,0,0,0,0,0,0,0,0.4
"A-506","2-[2-(2-ethoxyethoxy)ethoxy]ethyl methacrylate",-0.6030114261,"C=C(C)C(=O)OCCOCCOCCOCC","C=C(C)C(=O)OCCOCCOCCOCC",21.830842585965573,"C=C(C)C(=O)OCCOCCOCCOCC",1.1753999999999998,53.99000000000001,246.146723804,5,0,11,0,5,0,5,17,39,0,0,0,0,0,0,0,0,0,0,0,0.75
"A-508","(6R,7R)-3-[(acetyloxy)methyl]-7-amino-8-oxo-5-thia-1-azabicyclo[4.2.0]oct-2-ene-2-carboxylic acid",-2.6489777217,"CC(=O)OCC1=C(C(=O)[O-])N2C(=O)[C@@H]([NH3+])[C@H]2SC1","CC(=O)OCC1=C(C(=O)[O-])N2C(=O)[C@@H]([NH3+])[C@H]2SC1",-91.3216724401623,"CC(=O)OCC1=C(C(=O)[O-])N2C(=O)[C@@H]([NH3+])[C@H]2SC1",-2.920899999999997,114.38000000000001,272.046692484,7,3,3,1,6,1,8,18,30,2,2,0,1,2,0,1,2,0,0,0,0.5
"A-511","decanoic acid",-3.4452161366,"CCCCCCCCCC(=O)[O-]","CCCCCCCCCC(=O)[O-]",2.7565175888785753,"CCCCCCCCCC(=O)[O-]",1.8769999999999998,40.129999999999995,171.13905342791,2,0,8,0,2,0,2,12,31,0,0,0,0,0,0,0,0,0,0,0,0.9
"A-519","3-{6,6-dimethylbicyclo[3.1.1]hept-2-en-2-yl}propanal",-3.4657606101,"CC1(C)C2CC=C(CCC=O)C1C2","CC1(C)C2CC=C(CCC=O)C1C2",18.134270765372055,"CC1(C)C2CC=C(CCC=O)C1C2",2.9579000000000013,17.07,178.135765196,1,0,3,0,1,0,1,13,31,2,3,0,1,3,0,0,0,0,1,3,0.75
"A-520","2-(4-hydroxyphenyl)acetic acid",-0.3990804112,"O=C([O-])Cc1ccc(O)cc1","O=C([O-])Cc1ccc(O)cc1",35.612082070171674,"O=C([O-])Cc1ccc(O)cc1",-0.31540000000000057,60.36,151.04006766391,3,1,2,1,3,0,3,11,18,0,1,1,0,0,0,0,0,1,0,0,0.125
"A-521","(4-methoxyphenyl)methyl acetate",-2.4740066421,"COc1ccc(COC(C)=O)cc1","COc1ccc(COC(C)=O)cc1",1.536962314819018,"COc1ccc(COC(=O)C)cc1",1.7583,35.53,180.078644244,3,0,3,0,3,0,3,13,25,0,1,1,0,0,0,0,0,1,0,0,0.3
"A-525","6-phenyl-1,3,5-triazine-2,4-diamine",-2.4941685135,"Nc1nc(N)nc(-c2ccccc2)n1","Nc1nc(N)nc(-c2ccccc2)n1",-92.51257294493765,"Nc1nc(N)nc(c2ccccc2)n1",0.7030000000000001,90.71,187.08579528799999,5,4,1,2,5,0,5,14,23,0,2,2,0,0,1,0,0,1,0,0,0
"A-526","4-tert-butylcyclohexyl prop-2-enoate",-3.539328096,"C=CC(=O)OC1CCC(C(C)(C)C)CC1","C=CC(=O)OC1CCC(C(C)(C)C)CC1",11.160834465423445,"C=CC(=O)OC1CCC(C(C)(C)C)CC1",3.320500000000002,26.3,210.161979944,2,0,2,0,2,0,2,15,37,0,1,0,1,1,0,0,0,0,1,1,0.7692307692307693
"A-535","3-hydroxy-N-(2-methylphenyl)naphthalene-2-carboxamide",-4.6234419541,"Cc1ccccc1NC(=O)c1cc2ccccc2cc1O","Cc1ccccc1NC(=O)c1cc2ccccc2cc1O",47.12462644128201,"Cc1ccccc1NC(=O)c1cc2ccccc2cc1O",4.106120000000002,49.33,277.11027872,3,2,2,2,2,1,3,21,36,0,3,3,0,0,0,0,0,3,0,0,0.05555555555555555
"A-542","N,N-dibutyloctadec-9-enamide",-4.7889854408,"CCCCCCCCC=CCCCCCCCC(=O)N(CCCC)CCCC","CCCCCCCCC=CCCCCCCCC(=O)N(CCCC)CCCC",-15.645610875521703,"CCCCCCCCC=CCCCCCCCC(=O)N(CCCC)CCCC",8.452700000000007,20.310000000000002,393.397065252,2,0,21,0,1,1,2,28,79,0,0,0,0,0,0,0,0,0,0,0,0.8846153846153846
"A-543","(1S,2S,4S)-1,7,7-trimethylbicyclo[2.2.1]heptan-2-yl 2-methylprop-2-enoate",-4.5442204359,"C=C(C)C(=O)OC1CC2CCC1(C)C2(C)C","C=C(C)C(=O)OC1CC2CCC1(C)C2(C)C",21.482254741313046,"C=C(C)C(=O)OC1CC2CCC1(C)C2(C)C",3.320500000000002,26.3,222.161979944,2,0,2,0,2,0,2,16,38,3,2,0,2,2,0,0,0,0,2,2,0.7857142857142857
"A-545","nonyl acetate",-4.4708606495,"CCCCCCCCCOC(C)=O","CCCCCCCCCOC(C)=O",-10.527335556364324,"CCCCCCCCCOC(=O)C",3.3001000000000023,26.3,186.161979944,2,0,8,0,2,0,2,13,35,0,0,0,0,0,0,0,0,0,0,0,0.9090909090909091
"A-551","naphthalene",-4.3112256046,"c1ccc2ccccc2c1","c1ccc2ccccc2c1",25.54777552043761,"c1ccc2ccccc2c1",2.839800000000001,0,128.062600256,0,0,0,0,0,0,0,10,18,0,2,2,0,0,0,0,0,2,0,0,0
"A-553","cyclohexyl 2-hydroxybenzoate",-4.5540762927,"O=C(OC1CCCCC1)c1ccccc1O","O=C(OC1CCCCC1)c1ccccc1O",19.226020988774923,"O=C(OC1CCCCC1)c1ccccc1O",2.8817000000000017,46.53,220.109944372,3,1,2,1,3,0,3,16,32,0,2,1,1,1,0,0,0,1,1,1,0.46153846153846156
"A-554","(4R)-1-methyl-4-(prop-1-en-2-yl)cyclohex-1-ene",-4.346837785,"C=C(C)[C@H]1CC=C(C)CC1","C=C(C)[C@H]1CC=C(C)CC1",11.27392547198708,"C=C(C)[C@H]1CC=C(C)CC1",3.308900000000002,0,136.125200512,0,0,1,0,0,0,0,10,26,1,1,0,0,1,0,0,0,0,0,1,0.6
"A-555","hex-3-en-1-yl hex-3-enoate",-4.5097094839,"CCC=CCCOC(=O)CC=CCC","CCC=CCCOC(=O)CC=CCC",6.770724829732834,"CCC=CCCOC(=O)CC=CCC",3.242200000000002,26.3,196.14632988,2,0,7,0,2,0,2,14,34,0,0,0,0,0,0,0,0,0,0,0,0.5833333333333334
"A-556","13-ethyl-3-methoxy-4,6,7,8,9,11,12,13,14,15,16,17-dodecahydro-1H-cyclopenta[a]phenanthren-17-ol (non-preferred name)",-4.7025138257,"CC[C@]12CC[C@@H]3C4=C(CC[C@H]3[C@@H]1CC[C@@H]2O)CC(OC)=CC4","CC[C@]12CC[C@@H]3C4=C(CC[C@H]3[C@@H]1CC[C@@H]2O)CC(OC)=CC4",61.76388129806245,"CC[C@]12CC[C@@H]3C4=C(CC[C@H]3[C@@H]1CC[C@@H]2O)CC(=CC4)OC",4.594400000000004,29.46,302.2245802,2,1,2,1,2,0,2,22,52,5,4,0,2,4,0,0,0,0,2,4,0.8
"A-557","2,3-dihydroxypropyl laurate",-4.6602344394,"CCCCCCCCCCCC(=O)OCC(O)CO","CCCCCCCCCCCC(=O)OCC(O)CO",-1.3982096749296282,"CCCCCCCCCCCC(=O)OCC(O)CO",2.8037000000000014,66.76,274.21440944,4,2,13,2,4,0,4,19,49,1,0,0,0,0,0,0,0,0,0,0,0.9333333333333333
"A-558","2-benzoyl-5-methoxyphenol",-4.5802538276,"COc1ccc(C(=O)c2ccccc2)c(O)c1","COc1ccc(C(=O)c2ccccc2)c(O)c1",48.25237883266113,"COc1ccc(C(=O)c2ccccc2)c(O)c1",2.631800000000001,46.53,228.078644244,3,1,3,1,3,0,3,17,29,0,2,2,0,0,0,0,0,2,0,0,0.07142857142857142
"A-560","Vertofix",-4.6134788776,"CC(=O)C1=C(C)C2CC3(C1)C(C)CCC3C2(C)C","CC(=O)C1=C(C)C2CC3(C1)C(C)CCC3C2(C)C",68.62776775053169,"CC(=O)C1=C(C)C2CC3(C1)C(C)CCC3C2(C)C",4.3742000000000045,17.07,246.198365452,1,0,1,0,1,0,1,18,44,4,3,0,2,3,0,0,0,0,2,3,0.8235294117647058
"A-563","ethyl benzoate",-2.3999022404,"CCOC(=O)c1ccccc1","CCOC(=O)c1ccccc1",8.662240386320708,"CCOC(=O)c1ccccc1",1.8633,26.3,150.06807956,2,0,2,0,2,0,2,11,21,0,1,1,0,0,0,0,0,1,0,0,0.2222222222222222
"A-564","3-phenylpropanoic acid",-1.4057514128,"O=C([O-])CCc1ccccc1","O=C([O-])CCc1ccccc1",7.438166972224794,"O=C([O-])CCc1ccccc1",0.36909999999999976,40.129999999999995,149.06080310791,2,0,3,0,2,0,2,11,20,0,1,1,0,0,0,0,0,1,0,0,0.2222222222222222
"A-566","(2E)-3,7-dimethylocta-2,6-dienal",-2.4116682055,"CC(C)=CCCC(C)=CC=O","CC(C)=CCCC(C)=CC=O",19.503856150830213,"CC(=CCCC(=CC=O)C)C",2.878000000000001,17.07,152.120115132,1,0,4,0,1,0,1,11,27,0,0,0,0,0,0,0,0,0,0,0,0.5
"A-568","2-hexylcyclopentanone",-3.4515155376,"CCCCCCC1CCCC1=O","CCCCCCC1CCCC1=O",6.489065334820074,"CCCCCCC1CCCC1=O",3.3260000000000023,17.07,168.15141526,1,0,5,0,1,0,1,12,32,1,1,0,1,1,0,0,0,0,1,1,0.9090909090909091
"A-569","2,4,4,7-tetramethyloct-6-en-3-one",-3.4892158636,"CC(C)=CCC(C)(C)C(=O)C(C)C","CC(C)=CCC(C)(C)C(=O)C(C)C",11.42111191037881,"CC(=CCC(C)(C)C(=O)C(C)C)C",3.594000000000002,17.07,182.167065324,1,0,4,0,1,0,1,13,35,0,0,0,0,0,0,0,0,0,0,0,0.75
"A-570","Phenol, styrenated",-3.3940626837,"C=Cc1ccc(O)c(C=C)c1","C=Cc1ccc(O)c(C=C)c1",22.73030611209747,"C=Cc1ccc(O)c(C=C)c1",2.6782000000000012,20.23,146.07316494,1,1,2,1,1,0,1,11,21,0,1,1,0,0,0,0,0,1,0,0,0
"A-575","4-ethoxybenzoic acid",-2.4548997462,"CCOc1ccc(C(=O)[O-])cc1","CCOc1ccc(C(=O)[O-])cc1",25.449868259903525,"CCOc1ccc(C(=O)[O-])cc1",0.44879999999999987,49.36,165.05571772791,3,0,3,0,3,0,3,12,21,0,1,1,0,0,0,0,0,1,0,0,0.2222222222222222
"A-579","Desipramine",-3.6576170412,"C[NH2+]CCCN1c2ccccc2CCc2ccccc21","C[NH2+]CCCN1c2ccccc2CCc2ccccc21",24.792948313898723,"C[NH2+]CCCN1c2ccccc2CCc2ccccc12",2.5066000000000006,19.85,267.18557515609,2,2,4,1,1,0,2,20,43,0,3,2,0,1,0,0,1,2,0,0,0.3333333333333333
"A-584","decane-1,2-diol",-2.4785789552,"CCCCCCCCC(O)CO","CCCCCCCCC(O)CO",9.285678669016566,"CCCCCCCCC(O)CO",2.0902000000000007,40.46,174.161979944,2,2,8,2,2,0,2,12,34,1,0,0,0,0,0,0,0,0,0,0,1
"A-586","2-(butan-2-yl)cyclohexan-1-one",-2.427057806,"CCC(C)C1CCCCC1=O","CCC(C)C1CCCCC1=O",15.47968993119009,"CCC(C)C1CCCCC1=O",2.791800000000001,17.07,154.135765196,1,0,2,0,1,0,1,11,29,2,1,0,1,1,0,0,0,0,1,1,0.9
"A-587","4-formyl-2-methoxyphenyl 2-methylpropanoate",-2.5886676064,"COc1cc(C=O)ccc1OC(=O)C(C)C","COc1cc(C=O)ccc1OC(=O)C(C)C",33.28104120106988,"COc1cc(C=O)ccc1OC(=O)C(C)C",2.0690999999999997,52.6,222.089208928,4,0,4,0,4,0,4,16,30,0,1,1,0,0,0,0,0,1,0,0,0.3333333333333333
"A-596","17-hydroxyandrosta-1,4-dien-3-one",-3.7003596507,"C[C@]12C=CC(=O)C=C1CC[C@@H]1[C@@H]2CC[C@]2(C)[C@@H](O)CC[C@@H]12","C[C@]12C=CC(=O)C=C1CC[C@@H]1[C@@H]2CC[C@]2(C)[C@@H](O)CC[C@@H]12",60.858419262785894,"C[C@]12C=CC(=O)C=C1CC[C@@H]1[C@@H]2CC[C@]2(C)[C@@H](O)CC[C@@H]12",3.6552000000000024,37.3,286.193280072,2,1,0,1,2,0,2,21,47,6,4,0,3,4,0,0,0,0,3,4,0.7368421052631579
"A-597","3-(4-ethylphenyl)-2,2-dimethylpropanenitrile",-3.3513392636,"CCc1ccc(CC(C)(C)C#N)cc1","CCc1ccc(CC(C)(C)C#N)cc1",15.693542210330067,"CCc1ccc(CC(C)(C)C#N)cc1",3.341280000000002,23.79,187.136099544,1,0,3,0,1,0,1,14,31,0,1,1,0,0,0,0,0,1,0,0,0.46153846153846156
"A-600","Tricyclodecenyl propionate",-3.5585927938,"CCC(=O)OC1C=CC2C3CCC(C3)C12","CCC(=O)OC1C=CC2C3CCC(C3)C12",17.172931124002773,"CCC(=O)OC1C=CC2C3CCC(C3)C12",2.540300000000001,26.3,206.130679816,2,0,2,0,2,0,2,15,33,5,3,0,2,3,0,0,0,0,2,3,0.7692307692307693
"A-601","ethoxybenzene",-2.3318416428,"CCOc1ccccc1","CCOc1ccccc1",19.957444584873215,"CCOc1ccccc1",2.0853,9.23,122.07316494,1,0,2,0,1,0,1,9,19,0,1,1,0,0,0,0,0,1,0,0,0.25
"A-606","prop-2-en-1-yl 2-phenoxyacetate",-2.5363732086,"C=CCOC(=O)COc1ccccc1","C=CCOC(=O)COc1ccccc1",28.504709640626498,"C=CCOC(=O)COc1ccccc1",1.7946,35.53,192.078644244,3,0,5,0,3,0,3,14,26,0,1,1,0,0,0,0,0,1,0,0,0.18181818181818182
"A-614","4-amino-2,5-dimethoxy-N-methylbenzenesulfonamide",-3.6510805625,"CNS(=O)(=O)c1cc(OC)c(N)cc1OC","CNS(=O)(=O)c1cc(OC)c(N)cc1OC",0.5631211401457612,"CNS(=O)(=O)c1cc(OC)c(N)cc1OC",0.19409999999999977,90.65,246.067427928,6,3,4,2,5,0,7,16,30,0,1,1,0,0,0,0,0,1,0,0,0.3333333333333333
"A-618","1H-benzimidazol-2-ol",-2.3927519971,"O=c1[nH]c2ccccc2[nH]1","O=C1Nc2ccccc2N1",20.240386214683284,"O=c1[nH]c2ccccc2[nH]1",1.644,41.13,134.048012812,3,2,0,2,1,2,3,10,16,0,2,1,0,1,0,0,1,1,0,0,0