"ID","Name","Solubility","SMILES Canonical","Smiles (Optimized Geometry)","Energy","Smiles","SlogP","TPSA","ExactMW","NumLipinskiHBA","NumLipinskiHBD","NumRotatableBonds","NumHBD","NumHBA","NumAmideBonds","NumHeteroAtoms","NumHeavyAtoms","NumAtoms","NumStereocenters","NumRings","NumAromaticRings","NumSaturatedRings","NumAliphaticRings","NumAromaticHeterocycles","NumSaturatedHeterocycles","NumAliphaticHeterocycles","NumAromaticCarbocycles","NumSaturatedCarbocycles","NumAliphaticCarbocycles","FractionCSP3"
"B-491","butanoic acid, 1,2-ethanediyl ester",-2.6069,"CCCC(=O)OCCOC(=O)CCC","CCCC(=O)OCCOC(=O)CCC",-15.578333625664953,"CCCC(=O)OCCOC(=O)CCC",1.6729999999999998,52.6,202.120509056,4,0,7,0,4,0,4,14,32,0,0,0,0,0,0,0,0,0,0,0,0.8
"B-493","hexanedioic acid, bis(2-methoxyethyl) ester",-1.2665,"COCCOC(=O)CCCCC(=O)OCCOC","COCCOC(=O)CCCCC(=O)OCCOC",-0.9228190887473371,"COCCOC(=O)CCCCC(=O)OCCOC",0.9259999999999999,71.06,262.141638424,6,0,11,0,6,0,6,18,40,0,0,0,0,0,0,0,0,0,0,0,0.8333333333333334
"B-496","ethyl heptanoate",-2.7369,"CCCCCCC(=O)OCC","CCCCCCC(=O)OCC",-11.222838215690686,"CCCCCCC(=O)OCC",2.5199000000000007,26.3,158.130679816,2,0,6,0,2,0,2,11,29,0,0,0,0,0,0,0,0,0,0,0,0.8888888888888888
"B-497","ethyl octanoate",-3.3907,"CCCCCCCC(=O)OCC","CCCCCCCC(=O)OCC",-11.302846524033818,"CCCCCCCC(=O)OCC",2.910000000000001,26.3,172.14632988,2,0,7,0,2,0,2,12,32,0,0,0,0,0,0,0,0,0,0,0,0.9
"B-499","3-heptanone",-1.4242,"CCCCC(=O)CC","CCCCC(=O)CC",2.9228373377734322,"CCCCC(=O)CC",2.1557000000000004,17.07,114.104465068,1,0,4,0,1,0,1,8,22,0,0,0,0,0,0,0,0,0,0,0,0.8571428571428571
"B-501","2,5-piperazinedione",-0.8312,"O=C1CNC(=O)CN1","O=C1CNC(=O)CN1",41.3610304219852,"O=C1CNC(=O)CN1",-1.7675999999999992,58.2,114.042927432,4,2,0,2,2,2,4,8,14,0,1,0,1,1,0,1,1,0,0,0,0.5
"B-502","1-propanol, 2-(2-hydroxypropoxy)-",0.8723,"CC(O)COC(C)CO","CC(O)COC(C)CO",30.63548053428586,"CC(O)COC(C)CO",-0.2354,49.69,134.094294308,3,2,4,2,3,0,3,9,23,2,0,0,0,0,0,0,0,0,0,0,1
"B-504","3-octanone",-1.693,"CCCCCC(=O)CC","CCCCCC(=O)CC",3.012259921417841,"CCCCCC(=O)CC",2.5458000000000007,17.07,128.120115132,1,0,5,0,1,0,1,9,25,0,0,0,0,0,0,0,0,0,0,0,0.875
"B-506","decanedioic acid, dimethyl ester",-3.2831,"COC(=O)CCCCCCCCC(=O)OC","COC(=O)CCCCCCCCC(=O)OC",-22.105934311314467,"COC(=O)CCCCCCCCC(=O)OC",2.4532000000000007,52.60000000000001,230.151809184,4,0,9,0,4,0,4,16,38,0,0,0,0,0,0,0,0,0,0,0,0.8333333333333334
"B-524","taurine",-0.1906,"[NH3+]CCS(=O)(=O)[O-]","[NH3+]CCS(=O)(=O)[O-]",-152.714580284935,"[NH3+]CCS(=O)(=O)[O-]",-2.226499999999999,84.84,125.014664084,4,3,2,1,3,0,5,7,14,0,0,0,0,0,0,0,0,0,0,0,1
"B-525","isethionic acid",0.8992,"O=S(=O)([O-])CCO","O=S(=O)([O-])CCO",-19.460167077462547,"O=S(=O)([O-])CCO",-1.4760999999999997,77.43,124.99140321991001,4,1,2,1,4,0,5,7,12,0,0,0,0,0,0,0,0,0,0,0,1
"B-526","2-methyl-2,4-pentanediol",0.9275,"CC(O)CC(C)(C)O","CC(O)CC(C)(C)O",-0.9935170209604074,"CC(O)CC(C)(C)O",0.5282,40.46,118.099379688,2,2,2,2,2,0,2,8,22,1,0,0,0,0,0,0,0,0,0,0,1
"B-527","sarin",0.8536,"CC(C)OP(C)(=O)F","CC(C)OP(C)(=O)F",-17.498831673552356,"CC(C)OP(=O)(C)F",2.2038,26.3,140.04024441,2,0,2,0,2,0,4,8,18,1,0,0,0,0,0,0,0,0,0,0,1
"B-529","tetraethyl pyrophosphate",0.5373,"CCOP(=O)(OCC)OP(=O)(OCC)OCC","CCOP(=O)(OCC)OP(=O)(OCC)OCC",-231.67642379240795,"CCOP(=O)(OCC)OP(=O)(OCC)OCC",3.3652000000000024,80.29,290.06842624,7,0,10,0,7,0,9,17,37,0,0,0,0,0,0,0,0,0,0,0,1
"B-533","4-methoxy-4-methyl-2-pentanone",0.3326,"COC(C)(C)CC(C)=O","COC(C)(C)CC(C)=O",1.2412028741557606,"COC(C)(C)CC(=O)C",1.3905,26.3,130.099379688,2,0,3,0,2,0,2,9,23,0,0,0,0,0,0,0,0,0,0,0,0.8571428571428571
"B-545","2,4-dimethylpentane",-4.2605,"CC(C)CC(C)C","CC(C)CC(C)C",4.61388688126571,"CC(C)CC(C)C",2.6885000000000012,0,100.12520051199999,0,0,2,0,0,0,0,7,23,0,0,0,0,0,0,0,0,0,0,0,1
"B-546","4-methyl-2-pentanol",-0.7945,"CC(C)CC(C)O","CC(C)CC(C)O",5.128689702285311,"CC(C)CC(C)O",1.4133,20.23,102.104465068,1,1,2,1,1,0,1,7,21,1,0,0,0,0,0,0,0,0,0,0,1
"B-549","acetic anhydride",0.0702,"CC(=O)OC(C)=O","CC(=O)OC(C)=O",-19.014857502669244,"CC(=O)OC(=O)C",0.09600000000000009,43.370000000000005,102.031694052,3,0,0,0,3,0,3,7,13,0,0,0,0,0,0,0,0,0,0,0,0.5
"B-551","diethyl 3-methyl-5-pyrazolyl phosphate",-2.3696,"CCOP(=O)(OCC)Oc1cc(C)[nH]n1","CCOP(=O)(OCC)Oc1cc(C)[nH]n1",-84.40914110401559,"CCOP(=O)(OCC)Oc1cc(C)[nH]n1",2.2780199999999997,73.44,234.07694358999998,6,1,6,1,5,0,7,15,30,0,1,1,0,0,1,0,0,0,0,0,0.625
"B-553","metaldehyde (tetramer)",-2.8997,"CC1OC(C)OC(C)OC(C)O1","CC1OC(C)OC(C)OC(C)O1",-68.58746188663106,"CC1OC(C)OC(C)OC(C)O1",1.4504,36.92,176.104858992,4,0,0,0,4,0,4,12,28,0,1,0,1,1,0,1,1,0,0,0,1
"B-554","ethyl isovalerate",-1.8135,"CCOC(=O)CC(C)C","CCOC(=O)CC(C)C",-8.687999597780301,"CCOC(=O)CC(C)C",1.5956000000000001,26.3,130.099379688,2,0,3,0,2,0,2,9,23,0,0,0,0,0,0,0,0,0,0,0,0.8571428571428571
"B-556","2,4,6-collidine",-0.5394,"Cc1cc(C)nc(C)c1","Cc1cc(C)nc(C)c1",21.70284395046456,"Cc1cc(C)nc(C)c1",2.00686,12.89,121.08914935199999,1,0,0,0,1,0,1,9,20,0,1,1,0,0,1,0,0,0,0,0,0.375
"B-561","4-methyl-2-pentyl acetate",-2.0451,"CC(=O)OC(C)CC(C)C","CC(=O)OC(C)CC(C)C",-8.108130516603527,"CC(=O)OC(C)CC(C)C",1.9841,26.3,144.115029752,2,0,3,0,2,0,2,10,26,1,0,0,0,0,0,0,0,0,0,0,0.875
"B-565","thiophenol",-2.1204,"[S-]c1ccccc1","[S-]c1ccccc1",12.91882599316316,"[S-]c1ccccc1",1.5924,0,109.01174473991,0,0,0,0,1,0,1,7,12,0,1,1,0,0,0,0,0,1,0,0,0
"B-567","n-methylmorpholine",0.995,"C[NH+]1CCOCC1","C[NH+]1CCOCC1",52.78050642892591,"C[NH+]1CCOCC1",-1.4686999999999986,13.670000000000002,102.09134042408999,2,1,0,1,1,0,2,7,19,0,1,0,1,1,0,1,1,0,0,0,1
"B-569","piperazine, 2-methyl-",0.6378,"CC1CNCC[NH2+]1","CC1CNCC[NH2+]1",30.645925531918834,"CC1CNCC[NH2+]1",-1.4584999999999984,28.64,101.10732483608999,2,3,0,2,1,0,2,7,20,1,1,0,1,1,0,1,1,0,0,0,1
"B-572","dibutyl sebacate",-3.8955,"CCCCOC(=O)CCCCCCCCC(=O)OCCCC","CCCCOC(=O)CCCCCCCCC(=O)OCCCC",-21.16791477272355,"CCCCOC(=O)CCCCCCCCC(=O)OCCCC",4.7938000000000045,52.60000000000001,314.245709568,4,0,15,0,4,0,4,22,56,0,0,0,0,0,0,0,0,0,0,0,0.8888888888888888
"B-573","hexanedioic acid, bis(2-ethoxyethyl) ester",-2.065,"CCOCCOC(=O)CCCCC(=O)OCCOCC","CCOCCOC(=O)CCCCC(=O)OCCOCC",1.9335783827357744,"CCOCCOC(=O)CCCCC(=O)OCCOCC",1.7062,71.06,290.172938552,6,0,13,0,6,0,6,20,46,0,0,0,0,0,0,0,0,0,0,0,0.8571428571428571
"B-575","isobutyl vinyl ether",-1.5236,"C=COCC(C)C","C=COCC(C)C",4.418652402789438,"C=COCC(C)C",1.8025,9.23,100.088815004,1,0,3,0,1,0,1,7,19,0,0,0,0,0,0,0,0,0,0,0,0.6666666666666666
"B-592","sec-butylacetate",-1.2657,"CC(=O)OCC(C)C","CC(=O)OCC(C)C",-8.355611497640325,"CC(=O)OCC(C)C",1.2055,26.3,116.083729624,2,0,2,0,2,0,2,8,20,0,0,0,0,0,0,0,0,0,0,0,0.8333333333333334
"B-593","acetone, semicarbazone",-0.2674,"CC(C)=NNC(N)=O","CC(C)=NNC(N)=O",34.02723264098988,"CC(=NNC(=O)N)C",0.050500000000000156,67.47999999999999,115.07456190799999,4,3,1,2,2,2,4,8,17,0,0,0,0,0,0,0,0,0,0,0,0.5
"B-594","ethyl decanoate",-4.1006,"CCCCCCCCCC(=O)OCC","CCCCCCCCCC(=O)OCC",-11.5067273259445,"CCCCCCCCCC(=O)OCC",3.6902000000000026,26.3,200.177630008,2,0,9,0,2,0,2,14,38,0,0,0,0,0,0,0,0,0,0,0,0.9166666666666666
"B-595","diethyl sebacate",-3.5091,"CCOC(=O)CCCCCCCCC(=O)OCC","CCOC(=O)CCCCCCCCC(=O)OCC",-22.388959036485403,"CCOC(=O)CCCCCCCCC(=O)OCC",3.2334000000000023,52.60000000000001,258.183109312,4,0,11,0,4,0,4,18,44,0,0,0,0,0,0,0,0,0,0,0,0.8571428571428571
"B-596","isoamyl formate",-1.5206,"CC(C)CCOC=O","CC(C)CCOC=O",-11.413201727583857,"CC(C)CCOC=O",1.2055,26.3,116.083729624,2,0,4,0,2,0,2,8,20,0,0,0,0,0,0,0,0,0,0,0,0.8333333333333334
"B-597","2-methoxyethyl acetate",0.9276,"COCCOC(C)=O","COCCOC(C)=O",-1.2400645939764576,"COCCOC(=O)C",0.19590000000000019,35.53,118.06299418,3,0,3,0,3,0,3,8,18,0,0,0,0,0,0,0,0,0,0,0,0.8
"B-605","1-pentanethiol",-2.8248,"CCCCCS","CCCCCS",-0.3513525916298894,"CCCCCS",2.1064000000000003,0,104.065971384,0,0,3,1,1,0,1,6,18,0,0,0,0,0,0,0,0,0,0,0,1
"B-615","acetic acid, 2,2'-oxybis-",0.4927,"O=C([O-])COCC(=O)[O-]","O=C([O-])COCC(=O)[O-]",168.51465912775586,"O=C([O-])COCC(=O)[O-]",-3.4971999999999994,89.49000000000001,132.00697038782002,5,0,4,0,5,0,5,9,13,0,0,0,0,0,0,0,0,0,0,0,0.5
"B-617","heptanoic acid",-1.6646,"CCCCCCC(=O)[O-]","CCCCCCC(=O)[O-]",3.184913464366927,"CCCCCCC(=O)[O-]",0.7066999999999999,40.129999999999995,129.09210323591,2,0,5,0,2,0,2,9,22,0,0,0,0,0,0,0,0,0,0,0,0.8571428571428571
"B-618","ethoxyethylacetate",0.2716,"CCOCCOC(C)=O","CCOCCOC(C)=O",-1.2071137331754418,"CCOCCOC(=O)C",0.5860000000000001,35.53,132.078644244,3,0,4,0,3,0,3,9,21,0,0,0,0,0,0,0,0,0,0,0,0.8333333333333334
"B-620","decanedioic acid",-2.3059,"O=C([O-])CCCCCCCCC(=O)[O-]","O=C([O-])CCCCCCCCC(=O)[O-]",32.146778556647305,"O=C([O-])CCCCCCCCC(=O)[O-]",-0.39300000000000024,80.25999999999999,200.10595615182,4,0,9,0,4,0,4,14,30,0,0,0,0,0,0,0,0,0,0,0,0.8
"B-621","triethylene glycol, dinitrate",-1.561,"O=[N+]([O-])OCCOCCOCCO[N+](=O)[O-]","O=[N+]([O-])OCCOCCOCCO[N+](=O)[O-]",-10.273042132037158,"O=[N+]([O-])OCCOCCOCCO[N+](=O)[O-]",-0.5638000000000001,123.20000000000002,240.059365344,10,0,11,0,8,0,10,16,28,0,0,0,0,0,0,0,0,0,0,0,1
"B-623","diethylenetriamine",0.9864,"NCC[NH2+]CCN","NCC[NH2+]CCN",-3.717665371522716,"NCC[NH2+]CCN",-2.532799999999998,68.64999999999999,104.11822386808998,3,6,4,3,2,0,3,7,21,0,0,0,0,0,0,0,0,0,0,0,1
"B-633","diethylene glycol monomethyl ether",0.9203,"COCCOCCO","COCCOCCO",24.536144629520358,"COCCOCCO",-0.3583,38.69,120.078644244,3,1,5,1,3,0,3,8,20,0,0,0,0,0,0,0,0,0,0,0,1
"B-634","n-nonane",-5.7657,"CCCCCCCCC","CCCCCCCCC",-0.5568656223654634,"CCCCCCCCC",3.7569000000000026,0,128.15650064,0,0,6,0,0,0,0,9,29,0,0,0,0,0,0,0,0,0,0,0,1
"B-637","diethylene glycol monoethyl ether",0.8723,"CCOCCOCCO","CCOCCOCCO",24.452972154265467,"CCOCCOCCO",0.031799999999999884,38.69,134.094294308,3,1,6,1,3,0,3,9,23,0,0,0,0,0,0,0,0,0,0,0,1
"B-640","2-butoxyethanol acetate",-1.2504,"CCCCOCCOC(C)=O","CCCCOCCOC(C)=O",1.4895697211800645,"CCCCOCCOC(=O)C",1.3662,35.53,160.109944372,3,0,6,0,3,0,3,11,27,0,0,0,0,0,0,0,0,0,0,0,0.875
"B-645","diethylene glycol mono-n-butyl ether",0.7899,"CCCCOCCOCCO","CCCCOCCOCCO",24.24103357073401,"CCCCOCCOCCO",0.812,38.69,162.125594436,3,1,8,1,3,0,3,11,29,0,0,0,0,0,0,0,0,0,0,0,1
"B-646","methoxy triethylene glycol",0.7846,"COCCOCCOCCO","COCCOCCOCCO",38.76999618265803,"COCCOCCOCCO",-0.34170000000000006,47.92,164.104858992,4,1,8,1,4,0,4,11,27,0,0,0,0,0,0,0,0,0,0,0,1
"B-647","bis (2-ethoxy ethyl)  ether",0.7899,"CCOCCOCCOCC","CCOCCOCCOCC",28.087480322722953,"CCOCCOCCOCC",1.076,27.69,162.125594436,3,0,8,0,3,0,3,11,29,0,0,0,0,0,0,0,0,0,0,0,1
"B-648","ethoxytriethylene glycol",0.749,"CCOCCOCCOCCO","CCOCCOCCOCCO",41.7828981976775,"CCOCCOCCOCCO",0.04839999999999983,47.92,178.120509056,4,1,9,1,4,0,4,12,30,0,0,0,0,0,0,0,0,0,0,0,1
"B-650","ethanol, 2- 2-(hexyloxy)ethoxy -",-1.049,"CCCCCCOCCOCCO","CCCCCCOCCOCCO",25.718276375438187,"CCCCCCOCCOCCO",1.5922,38.69,190.156894564,3,1,10,1,3,0,3,13,35,0,0,0,0,0,0,0,0,0,0,0,1
"B-655","eicosane",-8.1724,"CCCCCCCCCCCCCCCCCCCC","CCCCCCCCCCCCCCCCCCCC",-1.672955719086448,"CCCCCCCCCCCCCCCCCCCC",8.048000000000007,0,282.328651344,0,0,17,0,0,0,0,20,62,0,0,0,0,0,0,0,0,0,0,0,1
"B-656","propoxur",-2.0512,"CNC(=O)Oc1ccccc1OC(C)C","CNC(=O)Oc1ccccc1OC(C)C",11.787855961449152,"CNC(=O)Oc1ccccc1OC(C)C",2.192,47.56,209.10519334,4,1,3,1,3,1,4,15,30,0,1,1,0,0,0,0,0,1,0,0,0.36363636363636365
"B-661","dimefox",0.8121,"CN(C)P(=O)(F)N(C)C","CN(C)P(=O)(F)N(C)C",-113.80234768714311,"CN(C)P(=O)(F)N(C)C",1.1872,23.550000000000004,154.06712785399998,3,0,2,0,1,0,5,9,21,0,0,0,0,0,0,0,0,0,0,0,1
"B-663","2-amino-2-methylpropanediol",0.9782,"CC([NH3+])(CO)CO","CC([NH3+])(CO)CO",-21.080117969991008,"CC([NH3+])(CO)CO",-2.0283999999999995,68.10000000000001,106.08625504409,3,5,2,3,2,0,3,7,19,0,0,0,0,0,0,0,0,0,0,0,1
"B-665","2,2-diethyl-1,3-propanediol",0.1798,"CCC(CC)(CO)CO","CCC(CC)(CO)CO",8.05502480199463,"CCC(CC)(CO)CO",0.7773999999999999,40.46,132.115029752,2,2,4,2,2,0,2,9,25,0,0,0,0,0,0,0,0,0,0,0,1
"B-667","octyldiphenyl phosphate",-6.4131,"CCCCCCCCOP(=O)(Oc1ccccc1)Oc1ccccc1","CCCCCCCCOP(=O)(Oc1ccccc1)Oc1ccccc1",-2.2390487367273972,"CCCCCCCCOP(=O)(Oc1ccccc1)Oc1ccccc1",6.629600000000007,44.760000000000005,362.164695974,4,0,12,0,4,0,5,25,52,0,2,2,0,0,0,0,0,2,0,0,0.4
"B-668","diphenylmethyl phosphate",-2.1209,"COP(=O)(Oc1ccccc1)Oc1ccccc1","COP(=O)(Oc1ccccc1)Oc1ccccc1",-5.039053551348404,"COP(=O)(Oc1ccccc1)Oc1ccccc1",3.898900000000002,44.760000000000005,264.055145526,4,0,5,0,4,0,5,18,31,0,2,2,0,0,0,0,0,2,0,0,0.07692307692307693
"B-670","ethoate methyl",-1.4567,"CCNC(=O)CSP(=S)(OC)OC","CCNC(=O)CSP(=S)(OC)OC",-81.33116489735247,"CCNC(=O)CSP(=S)(OC)OC",1.373,47.56,243.01527193799998,4,1,6,1,5,1,7,13,27,0,0,0,0,0,0,0,0,0,0,0,0.8333333333333334
"B-671","aldicarb",-1.4991,"CNC(=O)ON=CC(C)(C)SC","CNC(=O)ON=CC(C)(C)SC",35.54717099291291,"CNC(=O)ON=CC(C)(C)SC",1.4698,50.69,190.077598688,4,1,3,1,4,1,5,12,26,0,0,0,0,0,0,0,0,0,0,0,0.7142857142857143
"B-675","1-(hydroxymethyl)-5,5-dimethylhydantoin",0.8009,"CC1(C)C(=O)NC(=O)N1CO","CC1(C)C(=O)NC(=O)N1CO",-40.34801475774258,"CC1(C)C(=O)NC(=O)N1CO",-0.7334,69.64,158.06914218,5,2,1,2,3,3,5,11,21,0,1,0,1,1,0,1,1,0,0,0,0.6666666666666666
"B-678","1-amino-4-hydroxyanthraquinone",-3.824,"Nc1ccc([O-])c2c1C(=O)c1ccccc1C2=O","Nc1ccc([O-])c2c1C(=O)c1ccccc1C2=O",65.91520690289974,"Nc1ccc([O-])c2c1C(=O)c1ccccc1C2=O",1.1178000000000001,83.22,238.05096669591,4,2,0,1,4,0,4,18,26,0,3,2,0,1,0,0,0,2,0,1,0
"B-679","1,5-anthraquinonedisulfonic acid",0.2572,"O=C1c2cccc(S(=O)(=O)[O-])c2C(=O)c2cccc(S(=O)(=O)[O-])c21","O=C1c2cccc(S(=O)(=O)[O-])c2C(=O)c2cccc(S(=O)(=O)[O-])c21",39.179207216957685,"O=C1c2cccc(S(=O)(=O)[O-])c2C(=O)c2cccc(S(=O)(=O)[O-])c12",0.2702000000000001,148.54,365.95150631181997,8,0,2,0,8,0,10,24,30,0,3,2,0,1,0,0,0,2,0,1,0
"B-680","2-aminoanthraquinone",-6.1366,"Nc1ccc2c(c1)C(=O)c1ccccc1C2=O","Nc1ccc2c(c1)C(=O)c1ccccc1C2=O",28.096144692785636,"Nc1ccc2c(c1)C(=O)c1ccccc1C2=O",2.0442,60.160000000000004,223.063328528,3,2,0,1,3,0,3,17,26,0,3,2,0,1,0,0,0,2,0,1,0
"B-682","bis(methoxyethyl)phthalate",-1.5213,"COCCOC(=O)c1ccccc1C(=O)OCCOC","COCCOC(=O)c1ccccc1C(=O)OCCOC",10.195413706394561,"COCCOC(=O)c1ccccc1C(=O)OCCOC",1.2930000000000001,71.06,282.110338296,6,0,8,0,6,0,6,20,38,0,1,1,0,0,0,0,0,1,0,0,0.42857142857142855
"B-683","dioctyl phthalate",-7.2493,"CCCCCCCCOC(=O)c1ccccc1C(=O)OCCCCCCCC","CCCCCCCCOC(=O)c1ccccc1C(=O)OCCCCCCCC",-9.724619378150392,"CCCCCCCCOC(=O)c1ccccc1C(=O)OCCCCCCCC",6.721200000000008,52.60000000000001,390.277009696,4,0,16,0,4,0,4,28,66,0,1,1,0,0,0,0,0,1,0,0,0.6666666666666666
"B-684","hydrastine",-4.1065,"COc1ccc2c(c1OC)C(=O)OC2C1c2cc3c(cc2CC[NH+]1C)OCO3","COc1ccc2c(c1OC)C(=O)OC2C1c2cc3c(cc2CC[NH+]1C)OCO3",86.92756874668143,"COc1ccc2c(c1OC)C(=O)OC2C1c2cc3c(cc2CC[NH+]1C)OCO3",1.4560999999999997,67.66000000000001,384.14416384409,7,1,3,1,6,0,7,28,50,3,5,2,0,3,0,0,3,2,0,0,0.38095238095238093
"B-686","1-naphthalenamine, n-ethyl-",-3.1922,"CCNc1cccc2ccccc12","CCNc1cccc2ccccc12",32.28106699253179,"CCNc1cccc2ccccc12",3.271600000000001,12.03,171.104799416,1,1,2,1,1,0,1,13,26,0,2,2,0,0,0,0,0,2,0,0,0.16666666666666666
"B-691","pyridaphenthion",-3.5319,"CCOP(=S)(OCC)Oc1ccc(=O)n(-c2ccccc2)n1","CCOP(=S)(OCC)OC1=NN(c2ccccc2)C(=O)C=C1",-42.464304115852315,"CCOP(=S)(OCC)Oc1nn(c2ccccc2)c(=O)cc1",3.2170000000000023,60.36000000000001,340.06466465400007,6,0,6,0,6,1,8,22,39,0,2,1,0,1,0,0,1,1,0,0,0.2857142857142857
"B-692","p-(2,4-dinitroaniline)phenol",-5.444,"O=[N+]([O-])c1ccc(Nc2ccc(O)cc2)c([N+](=O)[O-])c1","O=[N+]([O-])c1ccc(Nc2ccc(O)cc2)c([N+](=O)[O-])c1",48.4980590048609,"O=[N+]([O-])c1ccc(Nc2ccc(O)cc2)c([N+](=O)[O-])c1",2.9522000000000004,118.54000000000002,275.05422038800003,8,2,4,2,6,0,8,20,29,0,2,2,0,0,0,0,0,2,0,0,0
"B-693","2-naphthalenesulfonic acid, 4-hydroxy-6-(phenyla",-1.9763,"O=S(=O)([O-])c1cc(O)c2cc(Nc3ccccc3)ccc2c1","O=S(=O)([O-])c1cc(O)c2cc(Nc3ccccc3)ccc2c1",46.264229883904505,"O=S(=O)([O-])c1cc(O)c2cc(Nc3ccccc3)ccc2c1",3.193100000000001,89.46000000000001,314.04925244391,5,2,3,2,5,0,6,22,34,0,3,3,0,0,0,0,0,3,0,0,0
"B-694","isolan",0.6752,"Cc1cc(OC(=O)N(C)C)n(C(C)C)n1","Cc1cc(OC(=O)N(C)C)n(C(C)C)n1",-5.4624622296318455,"Cc1cc(OC(=O)N(C)C)n(C(C)C)n1",1.83282,47.36,211.132076784,5,0,2,0,4,1,5,15,32,0,1,1,0,0,1,0,0,0,0,0,0.6
"B-695","bis (2-hydroxy-3tert-butyl-5-methylphenyl) metha",-7.2311,"Cc1cc(Cc2cc(C)cc(C(C)(C)C)c2O)c(O)c(C(C)(C)C)c1","Cc1cc(Cc2cc(C)cc(C(C)(C)C)c2O)c(O)c(C(C)(C)C)c1",33.85846729126729,"Cc1cc(Cc2cc(C)cc(C(C)(C)C)c2O)c(O)c(C(C)(C)C)c1",5.900440000000007,40.46,340.240230264,2,2,2,2,2,0,2,25,57,0,2,2,0,0,0,0,0,2,0,0,0.4782608695652174
"B-696","dimorpholamine",0.0985,"CCCCN(CCN(CCCC)C(=O)N1CCOCC1)C(=O)N1CCOCC1","CCCCN(CCN(CCCC)C(=O)N1CCOCC1)C(=O)N1CCOCC1",-44.48884674911546,"CCCCN(CCN(CCCC)C(=O)N1CCOCC1)C(=O)N1CCOCC1",2.095000000000001,65.56,398.28930569599993,8,0,9,0,4,4,8,28,66,0,2,0,2,2,0,2,2,0,0,0,0.9
"B-700","benzoic acid, 2-(methylamino)-",-2.8784,"CNc1ccccc1C(=O)[O-]","CNc1ccccc1C(=O)[O-]",33.411130574594544,"CNc1ccccc1C(=O)[O-]",0.09179999999999983,52.16,150.05605207591,3,1,2,1,3,0,3,11,19,0,1,1,0,0,0,0,0,1,0,0,0.125
"B-701","bianisidine",-2.213,"Cc1cc(-c2ccc(N)c(C)c2)ccc1N","Cc1cc(-c2ccc(N)c(C)c2)ccc1N",30.639589273671906,"Cc1cc(c2ccc(N)c(C)c2)ccc1N",3.1348400000000005,52.04,212.131348512,2,4,1,2,2,0,2,16,32,0,2,2,0,0,0,0,0,2,0,0,0.14285714285714285
"B-703","benzaldehyde, 3,4-dimethoxy-",-1.4199,"COc1ccc(C=O)cc1OC","COc1ccc(C=O)cc1OC",33.08709180515286,"COc1ccc(C=O)cc1OC",1.5162999999999998,35.53,166.06299418,3,0,3,0,3,0,3,12,22,0,1,1,0,0,0,0,0,1,0,0,0.2222222222222222
"B-704","benzaldehyde, 4-ethoxy-3-methoxy-",-2.1913,"CCOc1ccc(C=O)cc1OC","CCOc1ccc(C=O)cc1OC",32.92006369516608,"CCOc1ccc(C=O)cc1OC",1.9063999999999999,35.53,180.078644244,3,0,4,0,3,0,3,13,25,0,1,1,0,0,0,0,0,1,0,0,0.3
"B-707","1h-purine",0.6194,"c1ncc2[nH]cnc2n1","c1ncc2[nH]cnc2n1",-57.87307605460383,"c1ncc2[nH]cnc2n1",0.3528999999999999,54.46,120.04359612799999,4,1,0,1,3,0,4,9,13,0,2,2,0,0,2,0,0,0,0,0,0
"B-708","2,2'-dithiobisbenzothiazole",-4.5218,"c1ccc2sc(SSc3nc4ccccc4s3)nc2c1","c1ccc2sc(SSc3nc4ccccc4s3)nc2c1",20.977777094676572,"c1ccc2sc(SSc3nc4ccccc4s3)nc2c1",5.705400000000002,25.78,331.957032256,2,0,3,0,6,0,6,20,28,0,4,4,0,0,2,0,0,2,0,0,0
"B-709","pyrethrin i",-6.2155,"C=CC=CCC1=C(C)[C@@H](OC(=O)[C@@H]2[C@@H](C=C(C)C)C2(C)C)CC1=O","C=CC=CCC1=C(C)[C@@H](OC(=O)[C@@H]2[C@@H](C=C(C)C)C2(C)C)CC1=O",-6.179284532250209,"C=CC=CCC1=C(C)[C@@H](OC(=O)[C@@H]2[C@@H](C=C(C)C)C2(C)C)CC1=O",4.558200000000004,43.370000000000005,328.20384475599997,3,0,6,0,3,0,3,24,52,3,2,0,1,2,0,0,0,0,1,2,0.5238095238095238
"B-710","pyrethrin ii",-4.6168,"C=CC=CCC1=C(C)[C@@H](OC(=O)[C@@H]2[C@@H](C=C(C)C(=O)OC)C2(C)C)CC1=O","C=CC=CCC1=C(C)[C@@H](OC(=O)[C@@H]2[C@@H](C=C(C)C(=O)OC)C2(C)C)CC1=O",-29.018236263981557,"C=CC=CCC1=C(C)[C@@H](OC(=O)[C@@H]2[C@@H](C=C(C)C(=O)OC)C2(C)C)CC1=O",3.7113000000000023,69.67000000000002,372.193673996,5,0,7,0,5,0,5,27,55,3,2,0,1,2,0,0,0,0,1,2,0.5
"B-713","propyl gallate",-1.7827,"CCCOC(=O)c1cc(O)c(O)c(O)c1","CCCOC(=O)c1cc(O)c(O)c(O)c1",10.294252773682706,"CCCOC(=O)c1cc(O)c(O)c(O)c1",1.3701999999999999,86.99000000000001,212.068473484,5,3,3,3,5,0,5,15,27,0,1,1,0,0,0,0,0,1,0,0,0.3
"B-714","1,3,5,-trinitrohexahydro-1,3,5-triazine",-3.5706,"O=[N+]([O-])N1CN([N+](=O)[O-])CN([N+](=O)[O-])C1","O=[N+]([O-])N1CN([N+](=O)[O-])CN([N+](=O)[O-])C1",-258.1042408252598,"O=[N+]([O-])N1CN([N+](=O)[O-])CN([N+](=O)[O-])C1",-1.6463999999999996,139.14000000000001,222.034881912,12,0,3,0,6,0,12,15,21,0,1,0,1,1,0,1,1,0,0,0,1
"B-715","dimetan",-0.8477,"CN(C)C(=O)OC1=CC(=O)CC(C)(C)C1","CN(C)C(=O)OC1=CC(=O)CC(C)(C)C1",-11.357109550394231,"CN(C)C(=O)OC1=CC(=O)CC(C)(C)C1",1.9576,46.61,211.120843404,4,0,1,0,3,1,4,15,32,0,1,0,0,1,0,0,0,0,0,1,0.6363636363636364
"B-718","hydrazobenzene",-2.921,"c1ccc(NNc2ccccc2)cc1","c1ccc(NNc2ccccc2)cc1",31.387003298923187,"c1ccc(NNc2ccccc2)cc1",3.1256000000000013,24.06,184.100048384,2,2,3,2,2,0,2,14,26,0,2,2,0,0,0,0,0,2,0,0,0
"B-719","2-anilinoethanol",-0.4745,"OCCNc1ccccc1","OCCNc1ccccc1",26.11381827137005,"OCCNc1ccccc1",1.0908,32.26,137.084063972,2,2,3,2,2,0,2,10,21,0,1,1,0,0,0,0,0,1,0,0,0.25