"ID","Name","Solubility","SMILES Canonical","Smiles (Optimized Geometry)","Energy","Smiles","SlogP","TPSA","ExactMW","NumLipinskiHBA","NumLipinskiHBD","NumRotatableBonds","NumHBD","NumHBA","NumAmideBonds","NumHeteroAtoms","NumHeavyAtoms","NumAtoms","NumStereocenters","NumRings","NumAromaticRings","NumSaturatedRings","NumAliphaticRings","NumAromaticHeterocycles","NumSaturatedHeterocycles","NumAliphaticHeterocycles","NumAromaticCarbocycles","NumSaturatedCarbocycles","NumAliphaticCarbocycles","FractionCSP3"
"B-2628","1h-purine-2,6-dione, 3,7-dihydro-7-(3-hydroxypro",-0.1551,"Cn1c(=O)c2c(ncn2CCCO)n(C)c1=O","CN1C(=O)c2c(ncn2CCCO)N(C)C1=O",-140.09033982504928,"Cn1c(=O)c2c(ncn2CCCO)n(C)c1=O",-0.09269999999999995,78.67,238.106590308,7,1,3,1,5,3,7,17,31,0,2,1,0,1,1,0,1,0,0,0,0.5
"B-2631","pirimiphos ethyl",-4.9242,"CCOP(=S)(OCC)Oc1cc(C)nc(N(CC)CC)n1","CCOP(=S)(OCC)Oc1cc(C)nc(N(CC)CC)n1",-157.5720992659965,"CCOP(=S)(OCC)Oc1cc(C)nc(N(CC)CC)n1",3.307520000000002,56.71,333.127599258,6,0,9,0,7,0,8,21,45,0,1,1,0,0,1,0,0,0,0,0,0.6923076923076923
"B-2633","thiophanate-methyl",-4.1097,"COC(=O)[N-]C(=S)Nc1ccccc1NC(=S)[N-]C(=O)OC","COC(=O)[N-]C(=S)Nc1ccccc1NC(=S)[N-]C(=O)OC",56.389769831980544,"COC(=O)[N-]C(=S)Nc1ccccc1NC(=S)[N-]C(=O)OC",3.360400000000001,104.86,340.03109402381995,8,2,2,2,6,2,10,22,34,0,1,1,0,0,0,0,0,1,0,0,0.16666666666666666
"B-2634","octanedioic acid, 3,3,6,6-tetramethyl-",-3.1319,"CC(C)(CCC(C)(C)CC(=O)[O-])CC(=O)[O-]","CC(C)(CCC(C)(C)CC(=O)[O-])CC(=O)[O-]",50.546731891550394,"CC(C)(CCC(C)(C)CC(=O)[O-])CC(=O)[O-]",0.09900000000000064,80.25999999999999,228.13725627982,4,0,7,0,4,0,4,16,36,0,0,0,0,0,0,0,0,0,0,0,0.8333333333333334
"B-2635","n-hexyl nicotinoate",-2.6538,"CCCCCCOC(=O)c1cccnc1","CCCCCCOC(=O)c1cccnc1",4.191708691860601,"CCCCCCOC(=O)c1cccnc1",2.8187000000000015,39.19,207.125928784,3,0,6,0,3,0,3,15,32,0,1,1,0,0,1,0,0,0,0,0,0.5
"B-2636","phosphonic acid, (1,6-hexanediylbis(nitrilobis(m",-1.5161,"O=P([O-])([O-])C[NH+](CCCCCC[NH+](CP(=O)([O-])[O-])CP(=O)([O-])[O-])CP(=O)([O-])[O-]","O=P([O-])([O-])C[NH+](CCCCCC[NH+](CP(=O)([O-])[O-])CP(=O)([O-])[O-])CP(=O)([O-])[O-]",375.8212026187301,"O=P([O-])([O-])C[NH+](CCCCCC[NH+](CP(=O)([O-])[O-])CP(=O)([O-])[O-])CP(=O)([O-])[O-]",-8.198600000000015,261.64,486.01561214345986,14,2,15,2,12,0,18,28,50,0,0,0,0,0,0,0,0,0,0,0,1
"B-2637","1h-purin-8-amine, n,n-dimethyl-",-1.3885,"CN(C)c1nc2ncncc2[nH]1","CN(C)c1nc2ncncc2[nH]1",-66.77098694825955,"CN(C)c1nc2ncncc2[nH]1",0.4188999999999999,57.7,163.08579528799999,5,1,1,1,4,0,5,12,21,0,2,2,0,0,2,0,0,0,0,0,0.2857142857142857
"B-2638","pteridine, 2,6,7-trimethyl-",-1.1442,"Cc1ncc2nc(C)c(C)nc2n1","Cc1ncc2nc(C)c(C)nc2n1",61.364860622843615,"Cc1ncc2nc(C)c(C)nc2n1",1.34506,51.56,174.09054632,4,0,0,0,4,0,4,13,23,0,2,2,0,0,2,0,0,0,0,0,0.3333333333333333
"B-2640","5-pyrimidinecarboxylic acid, 1,2,3,4-tetrahydro-",-1.9381,"O=C([O-])c1c[nH]c(=O)[nH]c1=O","O=C1NC=C(C(=O)[O-])C(=O)N1",-62.992065213748944,"O=c1[nH]cc(C(=O)[O-])c(=O)[nH]1",-2.5404,98.32999999999998,155.00983015591,6,2,1,2,4,3,6,11,14,0,1,0,0,1,0,0,1,0,0,0,0
"B-2642","triazophos",-3.9049,"CCOP(=S)(OCC)Oc1ncn(-c2ccccc2)n1","CCOP(=S)(OCC)Oc1ncn(-c2ccccc2)n1",-82.01093599236208,"CCOP(=S)(OCC)Oc1ncn(c2ccccc2)n1",2.943600000000001,58.4,313.064999002,6,0,7,0,7,0,8,20,36,0,2,2,0,0,1,0,0,1,0,0,0.3333333333333333
"B-2643","naphtho[2,3-c]furan-1(3h)-one, 3,3-dimethyl-",-2.9844,"CC1(C)OC(=O)c2cc3ccccc3cc21","CC1(C)OC(=O)c2cc3ccccc3cc21",28.473040100496117,"CC1(C)OC(=O)c2cc3ccccc3cc12",3.245300000000002,26.3,212.083729624,2,0,0,0,2,0,2,16,28,0,3,2,0,1,0,0,1,2,0,0,0.21428571428571427
"B-2646","fenfuram",-3.3037,"Cc1occc1C(=O)Nc1ccccc1","Cc1occc1C(=O)Nc1ccccc1",20.425650885529272,"Cc1occc1C(=O)Nc1ccccc1",2.840320000000001,42.24,201.078978592,3,1,2,1,2,1,3,15,26,0,2,2,0,0,1,0,0,1,0,0,0.08333333333333333
"B-2647","hexanedioic acid, 3-butyl-",-1.3974,"CCCCC(CCC(=O)[O-])CC(=O)[O-]","CCCCC(CCC(=O)[O-])CC(=O)[O-]",50.4709666954368,"CCCCC(CCC(=O)[O-])CC(=O)[O-]",-0.5370999999999997,80.25999999999999,200.10595615182,4,0,8,0,4,0,4,14,30,1,0,0,0,0,0,0,0,0,0,0,0.8
"B-2649","cyclopentaneacetic acid, 3-oxo-2-pentyl-, methyl",-2.9076,"CCCCCC1C(=O)CCC1CC(=O)OC","CCCCCC1C(=O)CCC1CC(=O)OC",-4.3879885558008045,"CCCCCC1C(=O)CCC1CC(=O)OC",2.725100000000001,43.370000000000005,226.156894564,3,0,6,0,3,0,3,16,38,2,1,0,1,1,0,0,0,0,1,1,0.8461538461538461
"B-2650","4(1h)-pteridinone, 6,7-diphenyl-",-3.1766,"O=c1nc[nH]c2nc(-c3ccccc3)c(-c3ccccc3)nc12","O=C1N=CNc2nc(-c3ccccc3)c(-c3ccccc3)nc21",122.36947365557198,"O=c1nc[nH]c2nc(c3ccccc3)c(c3ccccc3)nc12",3.404600000000002,67.24000000000001,300.101111004,5,1,2,1,4,1,5,23,35,0,4,3,0,1,1,0,1,2,0,0,0
"B-2656","acetic acid, (2,4-dinitrophenoxy)-",-1.9369,"O=C([O-])COc1ccc([N+](=O)[O-])cc1[N+](=O)[O-]","O=C([O-])COc1ccc([N+](=O)[O-])cc1[N+](=O)[O-]",77.9655787432394,"O=C([O-])COc1ccc([N+](=O)[O-])cc1[N+](=O)[O-]",-0.3683000000000004,135.64000000000001,241.01022407991002,9,0,5,0,7,0,9,17,22,0,1,1,0,0,0,0,0,1,0,0,0.125
"B-2660","dipropylene glycol",0.8723,"CCC(O)OC(O)CC","CCC(O)OC(O)CC",-10.495134665459867,"CCC(O)OC(O)CC",0.4598,49.69,134.094294308,3,2,4,2,3,0,3,9,23,2,0,0,0,0,0,0,0,0,0,0,1
"B-2661","benzenesulfonamide, 4-(mannopyranosylamino)-",-0.9801,"NS(=O)(=O)c1ccc(NC2O[C@H](CO)[C@@H](O)[C@H](O)[C@@H]2O)cc1","NS(=O)(=O)c1ccc(NC2O[C@H](CO)[C@@H](O)[C@H](O)[C@@H]2O)cc1",46.51527649591657,"NS(=O)(=O)c1ccc(NC2O[C@H](CO)[C@@H](O)[C@H](O)[C@@H]2O)cc1",-2.4541999999999984,162.34,334.08347191599995,9,7,4,6,8,0,10,22,40,5,2,1,1,1,0,1,1,1,0,0,0.5
"B-2663","1-<hydroxyimino-(seqtrans)>-1-phenyl-acetone",-2.3676,"CC(=O)C(=NO)c1ccccc1","CC(=O)C(=NO)c1ccccc1",46.14446741728892,"CC(=O)C(=NO)c1ccccc1",1.4539,49.66,163.063328528,3,1,2,1,3,0,3,12,21,0,1,1,0,0,0,0,0,1,0,0,0.1111111111111111
"B-2664","thiazafluron",-2.0584,"CNC(=O)N(C)c1nnc(C(F)(F)F)s1","CNC(=O)N(C)c1nnc(C(F)(F)F)s1",-14.50594192415883,"CNC(=O)N(C)c1nnc(C(F)(F)F)s1",1.3325,58.120000000000005,240.029266504,5,1,1,1,4,2,9,15,22,0,1,1,0,0,1,0,0,0,0,0,0.5
"B-2666","hydroxycinnamic acid",-2.099,"O=C([O-])C=Cc1cccc(O)c1","O=C([O-])C=Cc1cccc(O)c1",27.158757514267307,"O=C([O-])C=Cc1cccc(O)c1",0.15529999999999994,60.36,163.04006766391,3,1,2,1,3,0,3,12,19,0,1,1,0,0,0,0,0,1,0,0,0
"B-2667","dowanol tpm",0.6855,"COCC(C)OCC(C)OC(C)CO","COCC(C)OCC(C)OC(C)CO",56.72188835584409,"COCC(C)OCC(C)OC(C)CO",0.8238000000000001,47.92,206.151809184,4,1,8,1,4,0,4,14,36,3,0,0,0,0,0,0,0,0,0,0,1
"B-2671","1,4-naphthalenedione, 2-(methylthio)-",-4.4651,"CSC1=CC(=O)c2ccccc2C1=O","CSC1=CC(=O)c2ccccc2C1=O",30.586727548582527,"CSC1=CC(=O)c2ccccc2C1=O",2.3125,34.14,204.024500496,2,0,1,0,3,0,3,14,22,0,2,1,0,1,0,0,0,1,0,1,0.09090909090909091
"B-2674","profluralin",-6.5407,"CCCN(CC1CC1)c1c([N+](=O)[O-])cc(C(F)(F)F)cc1[N+](=O)[O-]","CCCN(CC1CC1)c1c([N+](=O)[O-])cc(C(F)(F)F)cc1[N+](=O)[O-]",93.29570973746816,"CCCN(CC1CC1)c1c([N+](=O)[O-])cc(C(F)(F)F)cc1[N+](=O)[O-]",4.148200000000004,89.52,347.10929065199997,7,0,7,0,5,0,10,24,40,0,2,1,1,1,0,0,0,1,1,1,0.5714285714285714
"B-2675","tirpate",-2.3698,"CNC(=O)ON=CC1(C)SCC(C)S1","CNC(=O)ON=CC1(C)SCC(C)S1",54.32091858584222,"CNC(=O)ON=CC1(C)SCC(C)S1",1.9128999999999998,50.69,234.049669688,4,1,2,1,5,1,6,14,28,2,1,0,1,1,0,1,1,0,0,0,0.75
"B-2676","cresyl diphenyl phosphate",-6.1517,"Cc1ccc(OP(=O)(Oc2ccccc2)Oc2ccccc2)cc1","Cc1ccc(OP(=O)(Oc2ccccc2)Oc2ccccc2)cc1",32.283871038246865,"Cc1ccc(OP(=O)(Oc2ccccc2)Oc2ccccc2)cc1",5.6399200000000045,44.760000000000005,340.08644565400004,4,0,6,0,4,0,5,24,41,0,3,3,0,0,0,0,0,3,0,0,0.05263157894736842
"B-2677","phosphoric acid, bis(methylphenyl) phenyl ester",-6.3733,"Cc1ccc(OP(=O)(Oc2ccccc2)Oc2ccccc2C)cc1","Cc1ccc(OP(=O)(Oc2ccccc2)Oc2ccccc2C)cc1",32.45813466641453,"Cc1ccc(OP(=O)(Oc2ccccc2)Oc2ccccc2C)cc1",5.948340000000005,44.760000000000005,354.10209571800004,4,0,6,0,4,0,5,25,44,1,3,3,0,0,0,0,0,3,0,0,0.1
"B-2678","3(2h)-isothiazolone, 2-octyl-",-2.6301,"CCCCCCCCn1sccc1=O","CCCCCCCCN1SC=CC1=O",-7.937321449282731,"CCCCCCCCn1sccc1=O",3.3510000000000018,20.310000000000002,213.118735228,2,0,7,0,2,1,3,14,33,0,1,0,0,1,0,0,1,0,0,0,0.7272727272727273
"B-2680","phosphoric acid, diethyl 2-methylpropyl ester",-1.1765,"CCOP(=O)(OCC)OCC(C)C","CCOP(=O)(OCC)OCC(C)C",-82.80889648604978,"CCOP(=O)(OCC)OCC(C)C",2.8401000000000014,44.760000000000005,210.102095718,4,0,7,0,4,0,5,13,32,0,0,0,0,0,0,0,0,0,0,0,1
"B-2681","pentanoic acid, 4-oxo-3-(phenylmethylene)-",-1.6111,"CC(=O)C(=Cc1ccccc1)CC(=O)[O-]","CC(=O)C(=Cc1ccccc1)CC(=O)[O-]",27.17531724325422,"CC(=O)C(=Cc1ccccc1)CC(=O)[O-]",0.7989999999999999,57.2,203.07136779191,3,0,4,0,3,0,3,15,26,0,1,1,0,0,0,0,0,1,0,0,0.16666666666666666
"B-2686","butanoic acid, 1,2-ethanediylbis(oxy-2,1-ethaned",-1.5598,"CCCC(=O)OCCOCCOCCOC(=O)CCC","CCCC(=O)OCCOCCOCCOC(=O)CCC",14.671406120475398,"CCCC(=O)OCCOCCOCCOC(=O)CCC",1.7061999999999995,71.06,290.172938552,6,0,13,0,6,0,6,20,46,0,0,0,0,0,0,0,0,0,0,0,0.8571428571428571
"B-2687","3-pyridinecarboxamide, n-[(phenylamino)carbonyl]",-3.3825,"O=C(NC(=O)c1cccnc1)Nc1ccccc1","O=C(NC(=O)c1cccnc1)Nc1ccccc1",8.811977326720603,"O=C(NC(=O)c1cccnc1)Nc1ccccc1",2.0435,71.09,241.085126592,5,2,2,2,3,3,5,18,29,0,2,2,0,0,1,0,0,1,0,0,0
"B-2691","tetradecanol",-5.837,"CCCCCCCCCCC(O)CCC","CCCCCCCCCCC(O)CCC",3.3188312077867654,"CCCCCCCCCCC(O)CCC",4.678200000000004,20.23,214.22966558000002,1,1,11,1,1,0,1,15,45,1,0,0,0,0,0,0,0,0,0,0,1
"B-2696","diisooctyl phthalate",-6.6375,"CC(C)CCCCCOC(=O)c1ccccc1C(=O)OCCCCCC(C)C","CC(C)CCCCCOC(=O)c1ccccc1C(=O)OCCCCCC(C)C",-2.148020874989694,"CC(C)CCCCCOC(=O)c1ccccc1C(=O)OCCCCCC(C)C",6.433000000000007,52.60000000000001,390.277009696,4,0,14,0,4,0,4,28,66,0,1,1,0,0,0,0,0,1,0,0,0.6666666666666666
"B-2697","probenazole",-3.1727,"C=CCOC1=NS(=O)(=O)c2ccccc21","C=CCOc1ns(=O)(=O)c2ccccc12",83.84163622432794,"C=CCOC1=NS(=O)(=O)c2ccccc12",2.1933,56.26,223.030314148,4,0,3,0,5,0,5,15,24,0,2,2,0,0,1,0,0,1,0,0,0.1
"B-2698","2-butanone, 3-ethoxy-1,1-dihydroxy-; or kethoxal",-0.1707,"CCOC(C)C(=O)C(O)O","CCOC(C)C(=O)C(O)O",39.30324640147566,"CCOC(C)C(=O)C(O)O",-0.7088,66.76,148.073558864,4,2,4,2,4,0,4,10,22,1,0,0,0,0,0,0,0,0,0,0,0.8333333333333334
"B-2700","isopropyl phenyl diphenyl phosphate",-5.2239,"CC(C)c1ccccc1OP(=O)(Oc1ccccc1)Oc1ccccc1","CC(C)c1ccccc1OP(=O)(Oc1ccccc1)Oc1ccccc1",34.26076919387975,"CC(C)c1ccccc1OP(=O)(Oc1ccccc1)Oc1ccccc1",6.454900000000006,44.760000000000005,368.117745782,4,0,7,0,4,0,5,26,47,0,3,3,0,0,0,0,0,3,0,0,0.14285714285714285
"B-2701","2h-purine-2-thione, 1,3-dihydro-",-2.5803,"S=c1ncc2[nH]cnc2[nH]1","S=C1N=Cc2[nH]cnc2N1",-38.26251172230583,"S=c1ncc2[nH]cnc2[nH]1",0.5389999999999999,53.07,152.015667128,4,2,0,2,2,0,5,10,14,0,2,1,0,1,1,0,1,0,0,0,0
"B-2702","2,6-dinitro-biphenyl-3-ol",-3.7164,"O=[N+]([O-])c1ccc([O-])c([N+](=O)[O-])c1-c1ccccc1","O=[N+]([O-])c1ccc([O-])c([N+](=O)[O-])c1-c1ccccc1",88.94386327427495,"O=[N+]([O-])c1ccc([O-])c([N+](=O)[O-])c1c1ccccc1",2.2436,109.34,259.03604490391,7,0,3,0,5,0,7,19,26,0,2,2,0,0,0,0,0,2,0,0,0
"B-2705","bioresmethrin",-6.0524,"CC(C)=CC1C(C(=O)OCc2coc(Cc3ccccc3)c2)C1(C)C","CC(C)=CC1C(C(=O)OCc2coc(Cc3ccccc3)c2)C1(C)C",3.635738328634737,"CC(=CC1C(C(=O)OCc2coc(Cc3ccccc3)c2)C1(C)C)C",5.1520000000000055,39.44,338.18819469199997,3,0,6,0,3,0,3,25,51,2,3,2,1,1,1,0,0,1,1,1,0.4090909090909091
"B-2706","1,2-dithiane-3,6-dicarboxylic acid, cis-",-1.1709,"O=C([O-])[C@@H]1CC[C@H](C(=O)[O-])SS1","O=C([O-])[C@@H]1CC[C@H](C(=O)[O-])SS1",127.04788963331316,"O=C([O-])[C@@H]1CC[C@H](C(=O)[O-])SS1",-1.6014,80.25999999999999,205.97184783182,4,0,2,0,6,0,6,12,18,2,1,0,1,1,0,1,1,0,0,0,0.6666666666666666
"B-2707","2,4(1h,3h)-pyrimidinedione, 1-methyl-5-nitro-",-1.9977,"Cn1cc([N+](=O)[O-])c(=O)[nH]c1=O","CN1C=C([N+](=O)[O-])C(=O)NC1=O",-51.424693730007675,"Cn1cc([N+](=O)[O-])c(=O)[nH]c1=O",-0.7139,92.54999999999998,171.02800564,7,1,1,1,4,3,7,12,17,0,1,0,0,1,0,0,1,0,0,0,0.2
"B-2710","dinitramine",-5.4668,"CCN(CC)c1c([N+](=O)[O-])cc(C(F)(F)F)c(N)c1[N+](=O)[O-]","CCN(CC)c1c([N+](=O)[O-])cc(C(F)(F)F)c(N)c1[N+](=O)[O-]",86.97110975329744,"CCN(CC)c1c([N+](=O)[O-])cc(C(F)(F)F)c(N)c1[N+](=O)[O-]",2.9502000000000006,115.53999999999999,322.08888955599997,8,2,5,1,6,0,11,22,35,0,1,1,0,0,0,0,0,1,0,0,0.45454545454545453
"B-2713","atenolol",-1.3016,"CC(C)[NH2+]CC(O)COc1ccc(CC(N)=O)cc1","CC(C)[NH2+]CC(O)COc1ccc(CC(N)=O)cc1",31.096794874648577,"CC(C)[NH2+]CC(O)COc1ccc(CC(=O)N)cc1",-0.5740999999999981,89.16,267.17031901609,5,5,8,3,3,1,5,19,42,1,1,1,0,0,0,0,0,1,0,0,0.5
"B-2714","propanediamide, 2,2-diethyl-",-1.1992,"CCC(CC)(C(N)=O)C(N)=O","CCC(CC)(C(N)=O)C(N)=O",1.1435379841108748,"CCC(CC)(C(=O)N)C(=O)N",-0.23660000000000003,86.18,158.105527688,4,4,4,2,2,2,4,11,25,0,0,0,0,0,0,0,0,0,0,0,0.7142857142857143
"B-2715","Mecarphon",-1.9563,"COC(=O)N(C)C(=O)CSP(C)(=S)OC","COC(=O)N(C)C(=O)CSP(C)(=S)OC",-94.4137308459776,"COC(=O)N(C)C(=O)CSP(=S)(C)OC",1.5301,55.84,271.010186558,5,0,4,0,6,2,8,15,29,1,0,0,0,0,0,0,0,0,0,0,0.7142857142857143
"B-2717","hexadecanol",-6.7708,"CCCCCCCCCCCCC(O)CCC","CCCCCCCCCCCCC(O)CCC",1.887008441436093,"CCCCCCCCCCCCC(O)CCC",5.458400000000006,20.23,242.26096570800001,1,1,13,1,1,0,1,17,51,1,0,0,0,0,0,0,0,0,0,0,1
"B-2718","1-naphthalenecarboxamide, n-hydroxy-n-phenyl-",-3.9433,"O=C(c1cccc2ccccc12)N(O)c1ccccc1","O=C(c1cccc2ccccc12)N(O)c1ccccc1",61.076234585975094,"O=C(c1cccc2ccccc12)N(O)c1ccccc1",3.8758000000000017,40.540000000000006,263.094628656,3,1,2,1,2,1,3,20,33,0,3,3,0,0,0,0,0,3,0,0,0
"B-2719","benzamide, n-hydroxy-n-1-naphthalenyl-",-3.3065,"O=C(c1ccccc1)N(O)c1cccc2ccccc12","O=C(c1ccccc1)N(O)c1cccc2ccccc12",65.04970353515824,"O=C(c1ccccc1)N(O)c1cccc2ccccc12",3.8758000000000017,40.540000000000006,263.094628656,3,1,2,1,2,1,3,20,33,0,3,3,0,0,0,0,0,3,0,0,0
"B-2720","benzamide, 3,5-dinitro-n-phenyl-n-hydroxy-",-3.6367,"O=C(c1cc([N+](=O)[O-])cc([N+](=O)[O-])c1)N(O)c1ccccc1","O=C(c1cc([N+](=O)[O-])cc([N+](=O)[O-])c1)N(O)c1ccccc1",53.71948211071334,"O=C(c1cc([N+](=O)[O-])cc([N+](=O)[O-])c1)N(O)c1ccccc1",2.5390000000000006,126.82,303.049135008,9,1,4,1,6,1,9,22,31,0,2,2,0,0,0,0,0,2,0,0,0
"B-2721","acetic acid, [(aminothioxomethyl)thio]-",-0.7482,"NC(=S)SCC(=O)[O-]","NC(=S)SCC(=O)[O-]",23.96514167919625,"NC(=S)SCC(=O)[O-]",-1.2869000000000002,66.15,149.96889394791,3,2,2,1,4,0,5,8,12,0,0,0,0,0,0,0,0,0,0,0,0.3333333333333333
"B-2722","glycine, n-(dithiocarboxy)-, n-ester with mercap",-1.3011,"O=C([O-])CNC(=S)SCC(=O)[O-]","O=C([O-])CNC(=S)SCC(=O)[O-]",97.06396022627732,"O=C([O-])CNC(=S)SCC(=O)[O-]",-2.9060999999999986,92.28999999999999,206.96709679982,5,1,4,1,6,0,7,12,17,0,0,0,0,0,0,0,0,0,0,0,0.4
"B-2723","benzamide, n-[2-(1h-imidazol-4-yl)ethyl]-",-0.634,"O=C(NCCc1c[nH]cn1)c1ccccc1","O=C(NCCc1c[nH]cn1)c1ccccc1",13.23024004758571,"O=C(NCCc1c[nH]cn1)c1ccccc1",1.3821999999999999,57.78,215.105862036,4,2,4,2,2,1,4,16,29,0,2,2,0,0,1,0,0,1,0,0,0.16666666666666666
"B-2724","isodecyl diphenyl phosphate",-5.7165,"CC(C)CCCCCCCOP(=O)(Oc1ccccc1)Oc1ccccc1","CC(C)CCCCCCCOP(=O)(Oc1ccccc1)Oc1ccccc1",-4.39974682549093,"CC(C)CCCCCCCOP(=O)(Oc1ccccc1)Oc1ccccc1",7.265700000000007,44.760000000000005,390.195996102,4,0,13,0,4,0,5,27,58,0,2,2,0,0,0,0,0,2,0,0,0.45454545454545453
"B-2727","ethiofencarb",-2.0927,"CCSCc1ccccc1OC(=O)NC","CCSCc1ccccc1OC(=O)NC",1.7275961781044895,"CCSCc1ccccc1OC(=O)NC",2.6579000000000006,38.33,225.08234972,3,1,4,1,3,1,4,15,30,0,1,1,0,0,0,0,0,1,0,0,0.36363636363636365
"B-2729","ethidimuron",-1.945,"CCS(=O)(=O)c1nnc(N(C)C(=O)NC)s1","CCS(=O)(=O)c1nnc(N(C)C(=O)NC)s1",-15.040393820650111,"CCS(=O)(=O)c1nnc(N(C)C(=O)NC)s1",0.10730000000000023,92.26,264.035082244,7,1,3,1,6,2,9,16,28,0,1,1,0,0,1,0,0,0,0,0,0.5714285714285714
"B-2731","2-furanol, 5-ethyltetrahydro-",-0.0651,"CCC1CCC(O)O1","CCC1CCC(O)O1",1.2425486477935692,"CCC1CCC(O)O1",0.8937999999999999,29.46,116.083729624,2,1,1,1,2,0,2,8,20,2,1,0,1,1,0,1,1,0,0,0,1
"B-2733","1,6-dioxaspiro[4,4]nonane, 2,7-dimethyl-",-0.4487,"CC1CCC2(CCC(C)O2)O1","CC1CCC2(CCC(C)O2)O1",-6.173430047009553,"CC1CCC2(CCC(C)O2)O1",2.0805,18.46,156.115029752,2,0,0,0,2,0,2,11,27,2,2,0,2,2,0,2,2,0,0,0,1
"B-2735","etofenamate",-5.3633,"O=C(OCCOCCO)c1ccccc1Nc1cccc(C(F)(F)F)c1","O=C(OCCOCCO)c1ccccc1Nc1cccc(C(F)(F)F)c1",59.265050062493415,"O=C(OCCOCCO)c1ccccc1Nc1cccc(C(F)(F)F)c1",3.614700000000002,67.79,369.118792716,5,2,8,2,5,0,8,26,44,0,2,2,0,0,0,0,0,2,0,0,0.2777777777777778
"B-2736","pteridine, 4-methoxy-",-1.113,"COc1ncnc2nccnc12","COc1ncnc2nccnc12",52.40541949184994,"COc1ncnc2nccnc12",0.4283999999999998,60.790000000000006,162.054160812,5,0,1,0,5,0,5,12,18,0,2,2,0,0,2,0,0,0,0,0,0.14285714285714285
"B-2737","zolone",-5.1905,"CCOP(=S)(OCC)SCn1c(=O)oc2ccccc21","CCOP(=S)(OCC)SCN1C(=O)Oc2ccccc21",-103.66887608361941,"CCOP(=S)(OCC)SCn1c(=O)oc2ccccc12",3.9936000000000034,48,333.025836622,5,0,7,0,6,1,8,20,36,0,2,1,0,1,0,0,1,1,0,0,0.4166666666666667
"B-2738","benzo(a)fluorene",-6.678,"c1ccc2c(c1)Cc1c-2ccc2ccccc12","c1ccc2c(c1)Cc1c-2ccc2ccccc12",56.64617098259037,"c1ccc2c(c1)Cc1c2ccc2ccccc12",4.411000000000003,0,216.093900384,0,0,0,0,0,0,0,17,29,0,4,3,0,1,0,0,0,3,0,1,0.058823529411764705
"B-2740","Methacrifos",-2.7785,"COC(=O)C(C)=COP(=S)(OC)OC","COC(=O)C(C)=COP(=S)(OC)OC",-70.600295691818,"COC(=O)C(=COP(=S)(OC)OC)C",1.5970999999999997,53.99000000000001,240.022131146,5,0,5,0,6,0,7,14,27,0,0,0,0,0,0,0,0,0,0,0,0.5714285714285714
"B-2741","cafaminol",-0.6488,"CN(CCO)c1nc2c(c(=O)n(C)c(=O)n2C)n1C","CN1C(=O)c2c(nc(N(C)CCO)n2C)N(C)C1=O",-141.75780917910603,"Cn1c(=O)c2c(nc(N(C)CCO)n2C)n(C)c1=O",-0.5096,81.91,267.133139404,8,1,3,1,6,3,8,19,36,0,2,1,0,1,1,0,1,0,0,0,0.5454545454545454
"B-2742","isocarbamid",-2.1538,"CC(C)CNC(=O)N1CCNC1=O","CC(C)CNC(=O)N1CCNC1=O",-79.24160802095366,"CC(C)CNC(=O)N1CCNC1=O",0.3772000000000003,61.440000000000005,185.11642672,5,2,2,2,2,4,5,13,28,0,1,0,1,1,0,1,1,0,0,0,0.75
"B-2743","3(2h)-thiazoleacetic acid, 4-methyl-2-thioxo-",-1.9632,"Cc1csc(=S)n1CC(=O)[O-]","CC1=CSC(=S)N1CC(=O)[O-]",45.366306472844904,"Cc1csc(=S)n1CC(=O)[O-]",-0.0687000000000002,43.370000000000005,187.98454401191,3,0,2,0,4,0,5,11,17,0,1,0,0,1,0,0,1,0,0,0,0.3333333333333333
"B-2745","propetamphos",-3.4078,"CCNP(=S)(OC)OC(C)=CC(=O)OC(C)C","CCNP(=S)(OC)OC(C)=CC(=O)OC(C)C",-44.49536736768125,"CCNP(=S)(OC)OC(=CC(=O)OC(C)C)C",2.3388,56.790000000000006,281.08506575,5,1,7,1,5,0,7,17,37,1,0,0,0,0,0,0,0,0,0,0,0.7
"B-2746","3-methyl-2-heptanol",-2.0578,"CCCCC(C)C(C)O","CCCCC(C)C(C)O",7.829070912918725,"CCCCC(C)C(C)O",2.1935000000000007,20.23,130.135765196,1,1,4,1,1,0,1,9,27,2,0,0,0,0,0,0,0,0,0,0,1
"B-2748","benzo[a]pyrene, 5-methyl-",-8.5224,"Cc1cc2cccc3ccc4c5ccccc5cc1c4c32","Cc1cc2cccc3ccc4c5ccccc5cc1c4c32",65.93582931600248,"Cc1cc2cccc3ccc4c5ccccc5cc1c4c23",6.045620000000003,0,266.109550448,0,0,0,0,0,0,0,21,35,0,5,5,0,0,0,0,0,5,0,0,0.047619047619047616
"B-2749","lyral",-1.5376,"CC(C)(O)CCCC1=CCC(C=O)CC1","CC(C)(O)CCCC1=CCC(C=O)CC1",3.4253449009914174,"CC(C)(O)CCCC1=CCC(C=O)CC1",2.8530000000000015,37.3,210.161979944,2,1,5,1,2,0,2,15,37,1,1,0,0,1,0,0,0,0,0,1,0.7692307692307693
"B-2751","divicine",-1.6978,"NC1=[NH+]C(N)C(=O)C(=O)N1","NC1=[NH+]C(N)C(=O)C(=O)N1",-54.40900607073629,"NC1=[NH+]C(N)C(=O)C(=O)N1",-4.634599999999999,112.18,143.05635188409,6,6,0,4,4,1,6,10,17,1,1,0,0,1,0,0,1,0,0,0,0.25
"B-2753","9-octadecenoic acid, 12-(sulfooxy)-, (z)-",-0.5781,"CCCCCCC(CC=CCCCCCCCC(=O)[O-])OS(=O)(=O)[O-]","CCCCCCC(CC=CCCCCCCCC(=O)[O-])OS(=O)(=O)[O-]",-17.407873743315406,"CCCCCCC(CC=CCCCCCCCC(=O)[O-])OS(=O)(=O)[O-]",3.2291000000000007,106.56,376.19305690381987,6,0,17,0,6,0,7,25,57,1,0,0,0,0,0,0,0,0,0,0,0.8333333333333334
"B-2754","4-quinolinecarboxylic acid, 1,2-dihydro-6-methox",-3.1104,"COc1ccc2[nH]c(=O)cc(C(=O)[O-])c2c1","COc1ccc2c(c1)C(C(=O)[O-])=CC(=O)N2",26.985621772472385,"COc1ccc2c(c1)c(C(=O)[O-])cc(=O)[nH]2",-0.2194000000000002,78.46,218.04588131591,5,1,2,1,4,1,5,16,24,0,2,1,0,1,0,0,1,1,0,0,0.09090909090909091
"B-2757","succinamic acid, 3-amino-2-hydroxy-",-1.1494,"NC(=O)C([NH3+])C(O)C(=O)[O-]","NC(=O)C([NH3+])C(O)C(=O)[O-]",-138.9951701263616,"NC(=O)C([NH3+])C(O)C(=O)[O-]",-4.806999999999999,131.09,148.048406736,6,6,3,3,4,1,6,10,18,2,0,0,0,0,0,0,0,0,0,0,0.5