"ID","Name","Solubility","SMILES Canonical","Smiles (Optimized Geometry)","Energy","Smiles","SlogP","TPSA","ExactMW","NumLipinskiHBA","NumLipinskiHBD","NumRotatableBonds","NumHBD","NumHBA","NumAmideBonds","NumHeteroAtoms","NumHeavyAtoms","NumAtoms","NumStereocenters","NumRings","NumAromaticRings","NumSaturatedRings","NumAliphaticRings","NumAromaticHeterocycles","NumSaturatedHeterocycles","NumAliphaticHeterocycles","NumAromaticCarbocycles","NumSaturatedCarbocycles","NumAliphaticCarbocycles","FractionCSP3"
"B-1628","butanedioic acid, 2,3-diethyl-",-0.8608,"CCC(C(=O)[O-])C(CC)C(=O)[O-]","CCC(C(=O)[O-])C(CC)C(=O)[O-]",70.57578812320324,"CCC(C(=O)[O-])C(CC)C(=O)[O-]",-1.4613999999999987,80.25999999999999,172.07465602382,4,0,5,0,4,0,4,12,24,2,0,0,0,0,0,0,0,0,0,0,0.75
"B-1629","3-hydroxy-aspartic acid",-0.8271,"[NH3+][C@H](C(=O)[O-])[C@@H](O)C(=O)[O-]","[NH3+][C@H](C(=O)[O-])[C@@H](O)C(=O)[O-]",-113.68642820545895,"[NH3+][C@H](C(=O)[O-])[C@@H](O)C(=O)[O-]",-5.542399999999999,128.13,148.02514587191,6,4,3,2,5,0,6,10,16,2,0,0,0,0,0,0,0,0,0,0,0.5
"B-1630","urea, tetraethyl-",-0.6341,"CCN(CC)C(=O)N(CC)CC","CCN(CC)C(=O)N(CC)CC",-67.12777992200053,"CCN(CC)C(=O)N(CC)CC",1.79,23.550000000000004,172.15756326,3,0,4,0,1,2,3,12,32,0,0,0,0,0,0,0,0,0,0,0,0.8888888888888888
"B-1631","l-leucine, n-acetyl-",-1.3301,"CC(=O)N[C@@H](CC(C)C)C(=O)[O-]","CC(=O)N[C@@H](CC(C)C)C(=O)[O-]",32.75139959578356,"CC(=O)N[C@@H](CC(C)C)C(=O)[O-]",-0.7128999999999999,69.23,172.09791688791,4,1,4,1,3,1,4,12,26,1,0,0,0,0,0,0,0,0,0,0,0.75
"B-1633","2,5-dihydroxybenzaldehyde",-1.0004,"O=Cc1cc(O)ccc1O","O=Cc1cc(O)ccc1O",13.170678729432977,"O=Cc1cc(O)ccc1O",0.9102999999999997,57.53,138.031694052,3,2,1,2,3,0,3,10,16,0,1,1,0,0,0,0,0,1,0,0,0
"B-1634","tranexamic acid",0.0255,"[NH3+]CC1CCC(C(=O)[O-])CC1","[NH3+]CC1CCC(C(=O)[O-])CC1",-74.96932544480882,"[NH3+]CC1CCC(C(=O)[O-])CC1",-1.2153999999999996,67.77,157.11027872,3,3,2,1,2,0,3,11,26,0,1,0,1,1,0,0,0,0,1,1,0.875
"B-1635","2,4-dimethylquinoline",-1.9424,"Cc1cc(C)c2ccccc2n1","Cc1cc(C)c2ccccc2n1",36.942175736587174,"Cc1cc(C)c2ccccc2n1",2.8516400000000006,12.89,157.089149352,1,0,0,0,1,0,1,12,23,0,2,2,0,0,1,0,0,1,0,0,0.18181818181818182
"B-1637","dl-alanine, n-benzoyl-",-1.6839,"CC(NC(=O)c1ccccc1)C(=O)[O-]","CC(NC(=O)c1ccccc1)C(=O)[O-]",51.264163306420286,"CC(NC(=O)c1ccccc1)C(=O)[O-]",-0.44520000000000004,69.23,192.06661675991,4,1,3,1,3,1,4,14,24,1,1,1,0,0,0,0,0,1,0,0,0.2
"B-1638","methyl n-benzoglycine",-1.0556,"COC(=O)CNC(=O)c1ccccc1","COC(=O)CNC(=O)c1ccccc1",13.454706700979749,"COC(=O)CNC(=O)c1ccccc1",0.5893999999999995,55.4,193.073893212,4,1,3,1,3,1,4,14,25,0,1,1,0,0,0,0,0,1,0,0,0.2
"B-1639","10h-phenothiazine, 10-methyl-",-5.5934,"CN1c2ccccc2Sc2ccccc21","CN1c2ccccc2Sc2ccccc21",53.681191253777534,"CN1c2ccccc2Sc2ccccc12",3.919100000000002,3.24,213.061220352,1,0,0,0,2,0,2,15,26,0,3,2,0,1,0,0,1,2,0,0,0.07692307692307693
"B-1641","benzoic acid, 4-hydroxy, octyl ester",-4.2224,"CCCCCCCCOC(=O)c1ccc(O)cc1","CCCCCCCCOC(=O)c1ccc(O)cc1",8.319856048513673,"CCCCCCCCOC(=O)c1ccc(O)cc1",3.909500000000003,46.53,250.156894564,3,1,8,1,3,0,3,18,40,0,1,1,0,0,0,0,0,1,0,0,0.5333333333333333
"B-1642","galaxolide",-5.1693,"CC1COCc2cc3c(cc21)C(C)(C)C(C)C3(C)C","CC1COCc2cc3c(cc21)C(C)(C)C(C)C3(C)C",53.88318351555685,"CC1COCc2cc3c(cc12)C(C)(C)C(C)C3(C)C",4.525200000000004,9.23,258.198365452,1,0,0,0,1,0,1,19,45,2,3,1,0,2,0,0,1,1,0,1,0.6666666666666666
"B-1644","2-ethylhexyl diphenyl phosphate",-5.2804,"CCCCC(CC)COP(=O)(Oc1ccccc1)Oc1ccccc1","CCCCC(CC)COP(=O)(Oc1ccccc1)Oc1ccccc1",0.8883167985705146,"CCCCC(CC)COP(=O)(Oc1ccccc1)Oc1ccccc1",6.485500000000006,44.760000000000005,362.164695974,4,0,11,0,4,0,5,25,52,1,2,2,0,0,0,0,0,2,0,0,0.4
"B-1645","3h-pyrazol-3-one, 4,4'-methylenebis[1,2-dihydro-",-2.9549,"Cc1c(Cc2c(C)n(C)n(-c3ccccc3)c2=O)c(=O)n(-c2ccccc2)n1C","CC1=C(CC2=C(C)N(C)N(c3ccccc3)C2=O)C(=O)N(c2ccccc2)N1C",96.82008708982958,"Cc1c(Cc2c(C)n(C)n(c3ccccc3)c2=O)c(=O)n(c2ccccc2)n1C",3.711700000000002,47.10000000000001,388.18992600800004,6,0,4,0,4,2,6,29,53,0,4,2,0,2,0,0,2,2,0,0,0.21739130434782608
"B-1646","carminic acid",-2.5784,"Cc1c(C(=O)[O-])c(O)cc2c1C(=O)c1c([O-])c([C@H]3O[C@H](CO)[C@@H](O)[C@H](O)[C@H]3O)c(O)c([O-])c1C2=O","Cc1c(C(=O)[O-])c(O)cc2c1C(=O)c1c([O-])c([C@H]3O[C@H](CO)[C@@H](O)[C@H](O)[C@H]3O)c(O)c([O-])c1C2=O",291.3391894997984,"Cc1c(C(=O)[O-])c(O)cc2c1C(=O)c1c([O-])c([C@H]3O[C@H](CO)[C@@H](O)[C@H](O)[C@H]3O)c(O)c([O-])c1C2=O",-3.7927799999999996,250.99999999999997,489.06856134372987,13,6,3,6,13,0,13,35,52,5,4,2,1,2,0,1,1,2,0,1,0.3181818181818182
"B-1650","tetramethyl decynediol",-2.2756,"CC(C)C(C)C(C)C(O)C#CC(C)C(C)O","CC(C)C(C)C(C)C(O)C#CC(C)C(C)O",27.714642654343578,"CC(C)C(C)C(C)C(O)C#CC(C)C(C)O",2.2958000000000003,40.46,226.193280072,2,2,4,2,2,0,2,16,42,5,0,0,0,0,0,0,0,0,0,0,0.8571428571428571
"B-1651","carmine",-2.5784,"Cc1c(C(=O)[O-])c(O)cc2c1C(=O)c1c([O-])c(C3OC(CO)C(O)C(O)C3O)c(O)c([O-])c1C2=O","Cc1c(C(=O)[O-])c(O)cc2c1C(=O)c1c([O-])c(C3OC(CO)C(O)C(O)C3O)c(O)c([O-])c1C2=O",285.0896200860081,"Cc1c(C(=O)[O-])c(O)cc2c1C(=O)c1c([O-])c(C3OC(CO)C(O)C(O)C3O)c(O)c([O-])c1C2=O",-3.7927799999999996,250.99999999999997,489.06856134372987,13,6,3,6,13,0,13,35,52,5,4,2,1,2,0,1,1,2,0,1,0.3181818181818182
"B-1652","aloin",-1.7025,"O=C1c2c([O-])cccc2[C@@H]([C@@H]2O[C@H](CO)[C@@H](O)[C@H](O)[C@H]2O)c2cc(CO)cc([O-])c21","O=C1c2c([O-])cccc2[C@@H]([C@@H]2O[C@H](CO)[C@@H](O)[C@H](O)[C@H]2O)c2cc(CO)cc([O-])c21",219.12856217339944,"O=C1c2c([O-])cccc2[C@@H]([C@@H]2O[C@H](CO)[C@@H](O)[C@H](O)[C@H]2O)c2cc(CO)cc([O-])c12",-2.155199999999999,173.57,416.11182937981994,9,5,3,5,9,0,9,30,50,6,4,2,1,2,0,1,1,2,0,1,0.38095238095238093
"B-1654","trifenmorph",-7.2168,"c1ccc(C(c2ccccc2)(c2ccccc2)[NH+]2CCOCC2)cc1","c1ccc(C(c2ccccc2)(c2ccccc2)[NH+]2CCOCC2)cc1",85.89505617657046,"c1ccc(C(c2ccccc2)(c2ccccc2)[NH+]2CCOCC2)cc1",2.893600000000001,13.670000000000002,330.18524080809,2,1,4,1,1,0,2,25,49,0,4,3,1,1,0,1,1,3,0,0,0.21739130434782608
"B-1655","dinoterb",-4.7274,"CC(C)(C)c1cc([N+](=O)[O-])cc([N+](=O)[O-])c1[O-]","CC(C)(C)c1cc([N+](=O)[O-])cc([N+](=O)[O-])c1[O-]",68.11600285699416,"CC(C)(C)c1cc([N+](=O)[O-])cc([N+](=O)[O-])c1[O-]",1.8741,109.34,239.06734503191,7,0,2,0,5,0,7,17,28,0,1,1,0,0,0,0,0,1,0,0,0.4
"B-1656","4-(4-nitrophenylazo)phenol",-4.796,"O=C1C=CC(=NNc2ccc([N+](=O)[O-])cc2)C=C1","O=C1C=CC(=NNc2ccc([N+](=O)[O-])cc2)C=C1",40.19623152215567,"O=C1C=CC(=NNc2ccc([N+](=O)[O-])cc2)C=C1",2.0578,84.6,243.064391148,6,1,3,1,5,0,6,18,27,0,2,1,0,1,0,0,0,1,0,1,0
"B-1657","2-pyridinecarboxamide",0.1685,"NC(=O)c1ccccn1","NC(=O)c1ccccn1",43.964951403961756,"NC(=O)c1ccccn1",0.18049999999999994,55.980000000000004,122.048012812,3,2,1,1,2,1,3,9,15,0,1,1,0,0,1,0,0,0,0,0,0
"B-1658","heptadecyl alcohol",-7.506,"CCCCCCCCCCCCCCCCCO","CCCCCCCCCCCCCCCCCO",3.1578468218657774,"CCCCCCCCCCCCCCCCCO",5.8501000000000065,20.23,256.276615772,1,1,15,1,1,0,1,18,54,0,0,0,0,0,0,0,0,0,0,0,1
"B-1659","2,6-dimethyl-n-nitrosomorpholine",-0.0655,"CC1CN(N=O)CC(C)O1","CC1CN(N=O)CC(C)O1",40.15947246735307,"CC1CN(N=O)CC(C)O1",0.777,41.900000000000006,144.089877624,4,0,1,0,3,0,4,10,22,2,1,0,1,1,0,1,1,0,0,0,1
"B-1661","pyridine, 2,3,6-trimethyl-",-0.5893,"Cc1ccc(C)c(C)n1","Cc1ccc(C)c(C)n1",14.082199126176302,"Cc1ccc(C)c(C)n1",2.00686,12.89,121.08914935199999,1,0,0,0,1,0,1,9,20,0,1,1,0,0,1,0,0,0,0,0,0.375
"B-1663","5-indanol",-1.3285,"Oc1ccc2c(c1)CCC2","Oc1ccc2c(c1)CCC2",22.498458748623047,"Oc1ccc2c(c1)CCC2",1.8808999999999998,20.23,134.07316494,1,1,0,1,1,0,1,10,20,0,2,1,0,1,0,0,0,1,0,1,0.3333333333333333
"B-1665","piperidine, 3-ethyl-,",-0.3463,"CC[C@@H]1CCCC[NH2+]1","CC[C@@H]1CCCC[NH2+]1",5.976836965438931,"CC[C@@H]1CCCC[NH2+]1",0.5123000000000001,16.61,114.12772593208999,1,2,1,1,0,0,1,8,24,1,1,0,1,1,0,1,1,0,0,0,1
"B-1667","cyclohexanone, 2-(1-cyclohexen-1-yl)-",-2.774,"O=C1CCCCC1C1=CCCCC1","O=C1CCCCC1C1=CCCCC1",29.978538622102242,"O=C1CCCCC1C1=CCCCC1",3.246100000000002,17.07,178.135765196,1,0,1,0,1,0,1,13,31,1,2,0,1,2,0,0,0,0,1,2,0.75
"B-1671","n,n-diethyl succinamic acid",-0.7937,"CCN(CC)C(=O)CCC(=O)[O-]","CCN(CC)C(=O)CCC(=O)[O-]",-30.541877466030826,"CCN(CC)C(=O)CCC(=O)[O-]",-0.6151,60.44,172.09791688791,4,0,5,0,3,1,4,12,26,0,0,0,0,0,0,0,0,0,0,0,0.75
"B-1673","urea, (4-methoxyphenyl)-",-1.5917,"COc1ccc(NC(N)=O)cc1","COc1ccc(NC(N)=O)cc1",19.6792618537752,"COc1ccc(NC(=O)N)cc1",1.1857999999999997,64.35,166.07422756,4,3,2,2,2,2,4,12,22,0,1,1,0,0,0,0,0,1,0,0,0.125
"B-1674","4-methoxy-2-nitrophenol",-2.8409,"COc1ccc([O-])c([N+](=O)[O-])c1","COc1ccc([O-])c([N+](=O)[O-])c1",68.78793784400182,"COc1ccc([O-])c([N+](=O)[O-])c1",0.6769999999999998,75.42999999999999,168.03023125191,5,0,2,0,4,0,5,12,18,0,1,1,0,0,0,0,0,1,0,0,0.14285714285714285
"B-1675","1-propoxy-2-propanol",0.9275,"CCCOCC(C)O","CCCOCC(C)O",18.788485785013812,"CCCOCC(C)O",0.7938000000000001,29.46,118.099379688,2,1,4,1,2,0,2,8,22,1,0,0,0,0,0,0,0,0,0,0,1
"B-1679","benzamide, 3-(aminosulfonyl)-",-2.1554,"NC(=O)c1cccc(S(N)(=O)=O)c1","NC(=O)c1cccc(S(N)(=O)=O)c1",16.002500439524496,"NC(=O)c1cccc(S(=O)(=O)N)c1",-0.5671000000000002,103.25,200.025563116,5,4,2,2,3,1,6,13,21,0,1,1,0,0,0,0,0,1,0,0,0
"B-1682","urea, n,n''-ethylidenebis-",-0.5916,"CC(NC(N)=O)NC(N)=O","CC(NC(N)=O)NC(N)=O",-54.882064431052754,"CC(NC(=O)N)NC(=O)N",-1.3309999999999995,110.23999999999998,146.08037556,6,6,2,4,2,4,6,10,20,0,0,0,0,0,0,0,0,0,0,0,0.5
"B-1683","hydrazinecarboxamide, 2-cyclohexylidene-",-1.4127,"NC(=O)NN=C1CCCCC1","NC(=O)NN=C1CCCCC1",41.98982159813121,"NC(=O)NN=C1CCCCC1",0.9748,67.48,155.105862036,4,3,1,2,2,2,4,11,24,0,1,0,1,1,0,0,0,0,1,1,0.7142857142857143
"B-1684","2-naphthalenebutanoic acid, .gamma.-oxo-",-3.8533,"O=C([O-])CCC(=O)c1ccc2ccccc2c1","O=C([O-])CCC(=O)c1ccc2ccccc2c1",19.00307450993189,"O=C([O-])CCC(=O)c1ccc2ccccc2c1",1.5526,57.199999999999996,227.07136779191,3,0,4,0,3,0,3,17,28,0,2,2,0,0,0,0,0,2,0,0,0.14285714285714285
"B-1685","daminozide",-0.2046,"CN(C)NC(=O)CCC(=O)[O-]","CN(C)NC(=O)CCC(=O)[O-]",12.917524993264593,"CN(C)NC(=O)CCC(=O)[O-]",-1.8906999999999983,72.47,159.07751579191,5,1,4,1,4,1,5,11,22,0,0,0,0,0,0,0,0,0,0,0,0.6666666666666666
"B-1686","pentrinitrol",-1.585,"O=[N+]([O-])OCC(CO)(CO[N+](=O)[O-])CO[N+](=O)[O-]","O=[N+]([O-])OCC(CO)(CO[N+](=O)[O-])CO[N+](=O)[O-]",-66.36931469850235,"O=[N+]([O-])OCC(CO)(CO[N+](=O)[O-])CO[N+](=O)[O-]",-1.4099999999999995,177.34,271.028793488,13,1,10,1,10,0,13,18,27,0,0,0,0,0,0,0,0,0,0,0,1
"B-1687","atratone",-2.0696,"CCNc1nc(NC(C)C)nc(OC)n1","CCNc1nc(NC(C)C)nc(OC)n1",-187.94837393745948,"CCNc1nc(NC(C)C)nc(OC)n1",1.1322999999999996,71.96000000000001,211.14331016399998,6,2,5,2,6,0,6,15,32,0,1,1,0,0,1,0,0,0,0,0,0.6666666666666666
"B-1691","malaoxon",-1.6223,"CCOC(=O)CC(SP(=O)(OC)OC)C(=O)OCC","CCOC(=O)CC(SP(=O)(OC)OC)C(=O)OCC",-112.02287528960922,"CCOC(=O)CC(SP(=O)(OC)OC)C(=O)OCC",2.0054,88.13000000000001,314.058910578,7,0,9,0,8,0,9,19,38,1,0,0,0,0,0,0,0,0,0,0,0.8
"B-1692","1-heptanethiol",-4.1549,"CCCCCCCS","CCCCCCCS",-0.5562258031133297,"CCCCCCCS",2.886600000000002,0,132.097271512,0,0,5,1,1,0,1,8,24,0,0,0,0,0,0,0,0,0,0,0,1
"B-1693","aldicarb sulfoxide",-0.8673,"CNC(=O)ON=CC(C)(C)S(C)=O","CNC(=O)ON=CC(C)(C)S(C)=O",18.996245278353378,"CNC(=O)ON=CC(C)(C)S(=O)C",0.48529999999999984,67.75999999999999,206.072513308,5,1,3,1,4,1,6,13,27,1,0,0,0,0,0,0,0,0,0,0,0.7142857142857143
"B-1694","aldicarb sulfone",-1.3469,"CNC(=O)ON=CC(C)(C)S(C)(=O)=O","CNC(=O)ON=CC(C)(C)S(C)(=O)=O",2.8898076924973175,"CNC(=O)ON=CC(C)(C)S(=O)(=O)C",0.15139999999999998,84.82999999999998,222.067427928,6,1,3,1,5,1,7,14,28,0,0,0,0,0,0,0,0,0,0,0,0.7142857142857143
"B-1696","2-undecanol",-2.9418,"CCCCCCCCCC(C)O","CCCCCCCCCC(C)O",0.8828209911510729,"CCCCCCCCCC(C)O",3.5079000000000025,20.23,172.182715388,1,1,8,1,1,0,1,12,36,1,0,0,0,0,0,0,0,0,0,0,1
"B-1697","1-heptanol, 6-methyl-",-2.3038,"CC(C)CCCCCO","CC(C)CCCCCO",0.9027348025790354,"CC(C)CCCCCO",2.1951000000000005,20.23,130.135765196,1,1,5,1,1,0,1,9,27,0,0,0,0,0,0,0,0,0,0,0,1
"B-1698","1,10-phenanthroline, 3,4,7,8-tetramethyl-",-5.1939,"Cc1cnc2c(ccc3c(C)c(C)cnc32)c1C","Cc1cnc2c(ccc3c(C)c(C)cnc32)c1C",76.90817965148315,"Cc1cnc2c(ccc3c(C)c(C)cnc23)c1C",4.016680000000003,25.78,236.131348512,2,0,0,0,2,0,2,18,34,0,3,3,0,0,2,0,0,1,0,0,0.25
"B-1699","doxepin",-3.9469,"C[NH+](C)CCC=C1c2ccccc2COc2ccccc21","C[NH+](C)CCC=C1c2ccccc2COc2ccccc21",61.3349631330815,"C[NH+](C)CCC=C1c2ccccc2COc2ccccc12",2.545300000000001,13.670000000000002,280.16959074409,2,1,3,1,1,0,2,21,43,0,3,2,0,1,0,0,1,2,0,0,0.2631578947368421
"B-1700","ethylcyclohexane",-4.2507,"CCC1CCCCC1","CCC1CCCCC1",13.2900576643726,"CCC1CCCCC1",2.976700000000002,0,112.12520051199999,0,0,1,0,0,0,0,8,24,0,1,0,1,1,0,0,0,0,1,1,1
"B-1701","alpha-pinene oxide",-2.5937,"CC1(C)C2CC3OC3(C)C1C2","CC1(C)C2CC3OC3(C)C1C2",24.940159072403404,"CC1(C)C2CC3OC3(C)C1C2",2.2099,12.53,152.120115132,1,0,0,0,1,0,1,11,27,4,4,0,4,4,0,1,1,0,3,3,1
"B-1702","1(3h)isobenzofuranone-3,3-dimethyl",-1.8684,"CC1(C)OC(=O)c2ccccc21","CC1(C)OC(=O)c2ccccc21",16.301320972592393,"CC1(C)OC(=O)c2ccccc12",2.0921000000000003,26.3,162.06807956,2,0,0,0,2,0,2,12,22,0,2,1,0,1,0,0,1,1,0,0,0.3
"B-1703","p-phenylazophenol",-3.3429,"O=C1C=CC(=NNc2ccccc2)C=C1","O=C1C=CC(=NNc2ccccc2)C=C1",31.89586857585672,"O=C1C=CC(=NNc2ccccc2)C=C1",2.1495999999999995,41.46,198.07931294,3,1,2,1,3,0,3,15,25,0,2,1,0,1,0,0,0,1,0,1,0
"B-1710","6-methylchrysene",-6.5715,"Cc1cc2c3ccccc3ccc2c2ccccc12","Cc1cc2c3ccccc3ccc2c2ccccc12",57.68678551336164,"Cc1cc2c3ccccc3ccc2c2ccccc12",5.454620000000004,0,242.109550448,0,0,0,0,0,0,0,19,33,0,4,4,0,0,0,0,0,4,0,0,0.05263157894736842
"B-1711","isopropyl nitrate",-1.4593,"CC(C)O[N+](=O)[O-]","CC(C)O[N+](=O)[O-]",-17.393915742452496,"CC(C)O[N+](=O)[O-]",0.6031,52.370000000000005,105.042593084,4,0,2,0,3,0,4,7,14,0,0,0,0,0,0,0,0,0,0,0,1
"B-1714","dehydroabietic acid",-4.6582,"CC(C)c1ccc2c(c1)CC[C@@H]1[C@]2(C)CCC[C@@]1(C)C(=O)[O-]","CC(C)c1ccc2c(c1)CC[C@@H]1[C@]2(C)CCC[C@@]1(C)C(=O)[O-]",52.424960703451816,"CC(C)c1ccc2c(c1)CC[C@@H]1[C@]2(C)CCC[C@@]1(C)C(=O)[O-]",3.5702000000000016,40.129999999999995,299.20165368391,2,0,2,0,2,0,2,22,49,3,3,1,1,2,0,0,0,1,1,2,0.65
"B-1715","[1,2,4,5]tetrazino[1,2-a][1,2,4,5]tetrazine, oct",-0.0128,"C1NNC[NH+]2CNNC[NH+]12","C1NNC[NH+]2CNNC[NH+]12",101.11285017116131,"C1NNC[NH+]2CNNC[NH+]12",-5.283199999999999,57,146.12689728817998,6,6,0,6,4,0,6,10,24,0,2,0,2,2,0,2,2,0,0,0,1
"B-1716","nicotinanilide",-3.093,"O=C(Nc1ccccc1)c1cccnc1","O=C(Nc1ccccc1)c1cccnc1",27.753396163311578,"O=C(Nc1ccccc1)c1cccnc1",2.3339,41.99,198.07931294,3,1,2,1,2,1,3,15,25,0,2,2,0,0,1,0,0,1,0,0,0
"B-1717","1,2,3-benzothiadiazol-5-amine",-1.3045,"Nc1ccc2snnc2c1","Nc1ccc2snnc2c1",12.954841220981528,"Nc1ccc2snnc2c1",1.2735,51.8,151.02041816,3,2,0,1,4,0,4,10,15,0,2,2,0,0,1,0,0,1,0,0,0
"B-1721","propanal, 2-(hydroxyimino)-, oxime",-0.3462,"CC(=CN=O)N[O-]","CC(=CN=O)N[O-]",11.481662821073975,"CC(=CN=O)N[O-]",0.7015,64.52,101.03565097991,4,1,2,1,4,0,4,7,12,0,0,0,0,0,0,0,0,0,0,0,0.3333333333333333
"B-1729","4-heptanol, 3-methyl-",-1.8406,"CCCC(O)C(C)CC","CCCC(O)C(C)CC",6.014392231533121,"CCCC(O)C(C)CC",2.1935000000000002,20.23,130.135765196,1,1,4,1,1,0,1,9,27,2,0,0,0,0,0,0,0,0,0,0,1
"B-1730","fluspirilene",-4.6772,"O=C1NCN(c2ccccc2)C12CC[NH+](CCCC(c1ccc(F)cc1)c1ccc(F)cc1)CC2","O=C1NCN(c2ccccc2)C12CC[NH+](CCCC(c1ccc(F)cc1)c1ccc(F)cc1)CC2",47.36583628177282,"O=C1NCN(c2ccccc2)C21CC[NH+](CCCC(c1ccc(F)cc1)c1ccc(F)cc1)CC2",3.8883000000000028,36.78,476.25079550409,4,2,7,2,2,1,6,35,67,0,5,3,2,2,0,2,2,3,0,0,0.3448275862068966
"B-1731","undecanedioic acid",-1.6274,"O=C([O-])CCCCCCCCCC(=O)[O-]","O=C([O-])CCCCCCCCCC(=O)[O-]",30.127193284640114,"O=C([O-])CCCCCCCCCC(=O)[O-]",-0.002900000000000569,80.25999999999999,214.12160621582,4,0,10,0,4,0,4,15,33,0,0,0,0,0,0,0,0,0,0,0,0.8181818181818182
"B-1737","ethanediamide, n,n'-bis(2-hydroxyethyl)-",-0.1124,"O=C(NCCO)C(=O)NCCO","O=C(NCCO)C(=O)NCCO",39.97511595821361,"O=C(NCCO)C(=O)NCCO",-2.7965999999999993,98.66000000000001,176.079706864,6,4,4,4,4,2,6,12,24,0,0,0,0,0,0,0,0,0,0,0,0.6666666666666666
"B-1738","psicofuranine",-1.5701,"Nc1ncnc2c1ncn2[C@]1(CO)O[C@H](CO)[C@@H](O)[C@H]1O","Nc1ncnc2c1ncn2[C@]1(CO)O[C@H](CO)[C@@H](O)[C@H]1O",48.3123002398042,"Nc1ncnc2c1ncn2[C@]1(CO)O[C@H](CO)[C@@H](O)[C@H]1O",-2.8334999999999995,159.77,297.10731857999997,10,6,3,5,10,0,10,21,36,4,3,2,1,1,2,1,1,0,0,0,0.5454545454545454
"B-1739","o-methylphenoxyacetic acid",-2.4424,"Cc1ccccc1OCC(=O)[O-]","Cc1ccccc1OCC(=O)[O-]",65.04902203118567,"Cc1ccccc1OCC(=O)[O-]",0.12371999999999983,49.36,165.05571772791,3,0,3,0,3,0,3,12,21,0,1,1,0,0,0,0,0,1,0,0,0.2222222222222222
"B-1740","o-nitrophenoxyacetic acid",-2.016,"O=C([O-])COc1ccccc1[N+](=O)[O-]","O=C([O-])COc1ccccc1[N+](=O)[O-]",78.7023086977605,"O=C([O-])COc1ccccc1[N+](=O)[O-]",-0.2765000000000004,92.5,196.02514587190998,6,0,4,0,5,0,6,14,20,0,1,1,0,0,0,0,0,1,0,0,0.125
"B-1741","di-tert-butylsulfone",-1.2177,"CC(C)(C)S(=O)(=O)C(C)(C)C","CC(C)(C)S(=O)(=O)C(C)(C)C",6.560554616568367,"CC(C)(C)S(=O)(=O)C(C)(C)C",1.9982000000000002,34.14,178.102750816,2,0,0,0,2,0,3,11,29,0,0,0,0,0,0,0,0,0,0,0,1
"B-1745","2-furancarboxylic acid, 5-methyl-",-0.8243,"Cc1ccc(C(=O)[O-])o1","Cc1ccc(C(=O)[O-])o1",34.644411083077514,"Cc1ccc(C(=O)[O-])o1",-0.04848000000000008,53.269999999999996,125.02441759991001,3,0,1,0,3,0,3,9,14,0,1,1,0,0,1,0,0,0,0,0,0.16666666666666666
"B-1746","2-furancarboxaldehyde, 5-(methoxymethyl)-",-0.4992,"COCc1ccc(C=O)o1","COCc1ccc(C=O)o1",20.765974569276324,"COCc1ccc(C=O)o1",1.2385,39.44,140.047344116,3,0,3,0,3,0,3,10,18,0,1,1,0,0,1,0,0,0,0,0,0.2857142857142857
"B-1749","dipropalin",-2.9663,"CCCN(CCC)c1c([N+](=O)[O-])cc(C)cc1[N+](=O)[O-]","CCCN(CCC)c1c([N+](=O)[O-])cc(C)cc1[N+](=O)[O-]",93.48481877036144,"CCCN(CCC)c1c([N+](=O)[O-])cc(C)cc1[N+](=O)[O-]",3.437820000000002,89.52,281.137556088,7,0,7,0,5,0,7,20,39,0,1,1,0,0,0,0,0,1,0,0,0.5384615384615384
"B-1750","2,6-di-t-butyl-p-tolyl methylcarbamate",-4.598,"CNC(=O)Oc1c(C(C)(C)C)cc(C)cc1C(C)(C)C","CNC(=O)Oc1c(C(C)(C)C)cc(C)cc1C(C)(C)C",16.95531081644232,"CNC(=O)Oc1c(C(C)(C)C)cc(C)cc1C(C)(C)C",4.308220000000004,38.33,277.204179104,3,1,1,1,2,1,3,20,47,0,1,1,0,0,0,0,0,1,0,0,0.5882352941176471
"B-1752","10h-phenothiazin-3-ol",-2.5748,"Oc1ccc2c(c1)Sc1ccccc1N2","Oc1ccc2c(c1)Sc1ccccc1N2",37.38843265745533,"Oc1ccc2c(c1)Sc1ccccc1N2",3.6004000000000014,32.26,215.040484908,2,2,0,2,3,0,3,15,24,0,3,2,0,1,0,0,1,2,0,0,0
"B-1757","p-meo-b-phenylpropionic acid",-2.2144,"COc1ccc(CCC(=O)[O-])cc1","COc1ccc(CCC(=O)[O-])cc1",14.911309271820846,"COc1ccc(CCC(=O)[O-])cc1",0.3776999999999998,49.36,179.07136779191,3,0,4,0,3,0,3,13,24,0,1,1,0,0,0,0,0,1,0,0,0.3
"B-1761","benzthiazuron",-4.2373,"CNC(=O)Nc1nc2ccccc2s1","CNC(=O)Nc1nc2ccccc2s1",-12.609136974812216,"CNC(=O)Nc1nc2ccccc2s1",2.0476,54.02,207.046632908,4,2,1,2,3,2,5,14,23,0,2,2,0,0,1,0,0,1,0,0,0.1111111111111111
"B-1763","1,2-cyclohexanediol, 1-methyl-4-(1-methylethenyl",-0.2311,"C=C(C)C1CCC(C)(O)C(O)C1","C=C(C)C1CCC(C)(O)C(O)C1",22.22421370020175,"C=C(C)C1CCC(C)(O)C(O)C1",1.4745,40.46,170.130679816,2,2,1,2,2,0,2,12,30,3,1,0,1,1,0,0,0,0,1,1,0.8
"B-1764","propane-1-thiosulfinic acid s-propyl ester",-0.9199,"CCCSS(=O)CCC","CCCSS(=O)CCC",-5.184097471892278,"CCCSS(=O)CCC",2.2033000000000005,17.07,166.048607068,1,0,5,0,2,0,3,9,23,1,0,0,0,0,0,0,0,0,0,0,1
"B-1765","1,3-benzenedicarboxylic acid, 2-methoxy-",-2.2926,"COc1c(C(=O)[O-])cccc1C(=O)[O-]","COc1c(C(=O)[O-])cccc1C(=O)[O-]",92.33365003939518,"COc1c(C(=O)[O-])cccc1C(=O)[O-]",-1.5777999999999999,89.49000000000001,194.02262045182002,5,0,3,0,5,0,5,14,20,0,1,1,0,0,0,0,0,1,0,0,0.1111111111111111
"B-1766","propanoic acid, 4-nitrophenyl ester",-3.8925,"CCC(=O)Oc1ccc([N+](=O)[O-])cc1","CCC(=O)Oc1ccc([N+](=O)[O-])cc1",31.518914726384132,"CCC(=O)Oc1ccc([N+](=O)[O-])cc1",1.9102,69.44,195.053157768,5,0,3,0,4,0,5,14,23,0,1,1,0,0,0,0,0,1,0,0,0.2222222222222222
"B-1767","pentanoic acid, 4-nitrophenyl ester",-4.3945,"CCCCC(=O)Oc1ccc([N+](=O)[O-])cc1","CCCCC(=O)Oc1ccc([N+](=O)[O-])cc1",31.23745921417459,"CCCCC(=O)Oc1ccc([N+](=O)[O-])cc1",2.6904000000000012,69.44,223.084457896,5,0,5,0,4,0,5,16,29,0,1,1,0,0,0,0,0,1,0,0,0.36363636363636365