"ID","Name","Solubility","SMILES Canonical","Smiles (Optimized Geometry)","Energy","Smiles","SlogP","TPSA","ExactMW","NumLipinskiHBA","NumLipinskiHBD","NumRotatableBonds","NumHBD","NumHBA","NumAmideBonds","NumHeteroAtoms","NumHeavyAtoms","NumAtoms","NumStereocenters","NumRings","NumAromaticRings","NumSaturatedRings","NumAliphaticRings","NumAromaticHeterocycles","NumSaturatedHeterocycles","NumAliphaticHeterocycles","NumAromaticCarbocycles","NumSaturatedCarbocycles","NumAliphaticCarbocycles","FractionCSP3"
"B-1904","3-methyl-4-nitrophenol",-2.1103,"Cc1cc([O-])ccc1[N+](=O)[O-]","Cc1cc([O-])ccc1[N+](=O)[O-]",25.929524313739297,"Cc1cc([O-])ccc1[N+](=O)[O-]",0.9768199999999998,66.2,152.03531663191,4,0,1,0,3,0,4,11,17,0,1,1,0,0,0,0,0,1,0,0,0.14285714285714285
"B-1905","c.i. disperse orange 1",-7.5229,"O=[N+]([O-])c1ccc(N=Nc2ccc(Nc3ccccc3)cc2)cc1","O=[N+]([O-])c1ccc(N=Nc2ccc(Nc3ccccc3)cc2)cc1",66.80011755899513,"O=[N+]([O-])c1ccc(N=Nc2ccc(Nc3ccccc3)cc2)cc1",5.753800000000004,79.89,318.111675688,6,1,5,1,5,0,6,24,38,0,3,3,0,0,0,0,0,3,0,0,0
"B-1906","guanidine, 2-benzothiazolyl-",-2.4412,"NC(N)=[NH+]c1nc2ccccc2s1","NC(N)=[NH+]c1nc2ccccc2s1",-12.305197229945344,"NC(=[NH+]c1nc2ccccc2s1)N",-0.7182,78.9,193.05424370808998,4,5,1,3,2,0,5,13,22,0,2,2,0,0,1,0,0,1,0,0,0
"B-1907","2-hexenedioic acid",-1.2045,"O=C([O-])C=CCCC(=O)[O-]","O=C([O-])C=CCCC(=O)[O-]",51.97912537199481,"O=C([O-])C=CCCC(=O)[O-]",-2.1773999999999987,80.25999999999999,142.02770583182001,4,0,4,0,4,0,4,10,16,0,0,0,0,0,0,0,0,0,0,0,0.3333333333333333
"B-1908","phorate sulfoxide",-1.5384,"CCOP(=S)(OCC)SCS(=O)CC","CCOP(=S)(OCC)SCS(=O)CC",-87.61721105091792,"CCOP(=S)(OCC)SCS(=O)CC",2.7432000000000016,35.53,276.007744034,3,0,8,0,5,0,7,14,31,1,0,0,0,0,0,0,0,0,0,0,1
"B-1909","phorate sulfone",-2.5309,"CCOP(=S)(OCC)SCS(=O)(=O)CC","CCOP(=S)(OCC)SCS(=O)(=O)CC",-72.36799590027007,"CCOP(=S)(OCC)SCS(=O)(=O)CC",2.409300000000001,52.6,292.002658654,4,0,8,0,6,0,8,15,32,0,0,0,0,0,0,0,0,0,0,0,1
"B-1911","mecarbam",-2.5177,"CCOC(=O)N(C)C(=O)CSP(=S)(OCC)OCC","CCOC(=O)N(C)C(=O)CSP(=S)(OCC)OCC",-130.82348854269753,"CCOC(=O)N(C)C(=O)CSP(=S)(OCC)OCC",2.6320000000000006,65.07000000000001,329.05205136999996,6,0,8,0,7,2,9,19,39,0,0,0,0,0,0,0,0,0,0,0,0.8
"B-1912","fenthoate",-4.4643,"CCOC(=O)C(SP(=S)(OC)OC)c1ccccc1","CCOC(=O)C(SP(=S)(OC)OC)c1ccccc1",-66.34402862964137,"CCOC(=O)C(SP(=S)(OC)OC)c1ccccc1",3.5413000000000023,44.760000000000005,320.030587654,4,0,7,0,6,0,7,19,36,1,1,1,0,0,0,0,0,1,0,0,0.4166666666666667
"B-1914","3,5-pyridinedicarboxylic acid, 2,6-dimethyl-",-2.809,"Cc1nc(C)c(C(=O)[O-])cc1C(=O)[O-]","Cc1nc(C)c(C(=O)[O-])cc1C(=O)[O-]",66.701412057526,"Cc1nc(C)c(C(=O)[O-])cc1C(=O)[O-]",-1.57456,93.15,193.03860486382,5,0,2,0,5,0,5,14,21,0,1,1,0,0,1,0,0,0,0,0,0.2222222222222222
"B-1916","p-acetoxyacetanilide",-1.9076,"CC(=O)Nc1ccc(OC(C)=O)cc1","CC(=O)Nc1ccc(OC(C)=O)cc1",22.743055643749646,"CC(=O)Nc1ccc(OC(=O)C)cc1",1.5702999999999998,55.4,193.073893212,4,1,2,1,3,1,4,14,25,0,1,1,0,0,0,0,0,1,0,0,0.2
"B-1917","2,4(1h,3h)-pteridinedione, 1,3,6,7-tetramethyl-",-1.3429,"Cc1nc2c(=O)n(C)c(=O)n(C)c2nc1C","Cc1nc2c(nc1C)N(C)C(=O)N(C)C2=O",2.265392742533193,"Cc1nc2c(nc1C)n(C)c(=O)n(C)c2=O",0.7352399999999999,66.4,220.096025624,6,0,0,0,4,3,6,16,28,0,2,1,0,1,1,0,1,0,0,0,0.4
"B-1918","butanoic acid, 4-nitrophenyl ester",-3.9404,"CCCC(=O)Oc1ccc([N+](=O)[O-])cc1","CCCC(=O)Oc1ccc([N+](=O)[O-])cc1",31.3526642678855,"CCCC(=O)Oc1ccc([N+](=O)[O-])cc1",2.3003,69.44,209.068807832,5,0,4,0,4,0,5,15,26,0,1,1,0,0,0,0,0,1,0,0,0.3
"B-1919","1,2-naphthalenedione, 1-oxime",-2.9374,"O=Nc1c(O)ccc2ccccc12","O=Nc1c(O)ccc2ccccc12",36.70909887382818,"O=Nc1c(O)ccc2ccccc12",2.9433000000000016,49.66,173.047678464,3,1,1,1,3,0,3,13,20,0,2,2,0,0,0,0,0,2,0,0,0
"B-1920","4,4'-dicyano-4,4'azo-di-valeric acid",-2.0083,"C[C@@](C#N)(CCC(=O)[O-])N=N[C@@](C)(C#N)CCC(=O)[O-]","C[C@@](C#N)(CCC(=O)[O-])N=N[C@@](C)(C#N)CCC(=O)[O-]",64.20116213619507,"C[C@@](C#N)(CCC(=O)[O-])N=N[C@@](C)(C#N)CCC(=O)[O-]",-0.936639999999999,152.56,278.10260208782,8,0,8,0,8,0,8,20,34,2,0,0,0,0,0,0,0,0,0,0,0.6666666666666666
"B-1921","azinphos ethyl",-4.5171,"CCOP(=S)(OCC)SCn1nnc2ccccc2c1=O","CCOP(=S)(OCC)SCN1N=Nc2ccccc2C1=O",-88.24063508222677,"CCOP(=S)(OCC)SCn1nnc2ccccc2c1=O",4.129300000000003,63.49,345.03707000199995,6,0,7,0,7,1,9,21,37,0,2,1,0,1,0,0,1,1,0,0,0.4166666666666667
"B-1922","6-aminochrysene",-6.1958,"Nc1cc2c3ccccc3ccc2c2ccccc12","Nc1cc2c3ccccc3ccc2c2ccccc12",58.01310241486083,"Nc1cc2c3ccccc3ccc2c2ccccc12",4.728400000000002,26.02,243.104799416,1,2,0,1,1,0,1,19,32,0,4,4,0,0,0,0,0,4,0,0,0
"B-1923","3,5-bis(tert-butyl)phenol methylcarbamate",-4.2445,"CNC(=O)Oc1cc(C(C)(C)C)cc(C(C)(C)C)c1","CNC(=O)Oc1cc(C(C)(C)C)cc(C(C)(C)C)c1",15.578703290973701,"CNC(=O)Oc1cc(C(C)(C)C)cc(C(C)(C)C)c1",3.999800000000003,38.33,263.18852904,3,1,1,1,2,1,3,19,44,0,1,1,0,0,0,0,0,1,0,0,0.5625
"B-1925",".beta.-alanine, n-methyl-",-0.0543,"C[NH2+]CCC(=O)[O-]","C[NH2+]CCC(=O)[O-]",-117.80081525041788,"C[NH2+]CCC(=O)[O-]",-2.680399999999999,56.739999999999995,103.063328528,3,2,3,1,2,0,3,7,16,0,0,0,0,0,0,0,0,0,0,0,0.75
"B-1927","phosphoric acid, butyl diethyl ester",-1.1466,"CCCCOP(=O)(OCC)OCC","CCCCOP(=O)(OCC)OCC",-85.98677530353183,"CCCCOP(=O)(OCC)OCC",2.9842000000000013,44.760000000000005,210.102095718,4,0,8,0,4,0,5,13,32,0,0,0,0,0,0,0,0,0,0,0,1
"B-1928","leucine, ethyl ester",-0.5606,"CCOC(=O)[C@@H]([NH3+])CC(C)C","CCOC(=O)[C@@H]([NH3+])CC(C)C",-28.44176057972812,"CCOC(=O)[C@@H]([NH3+])CC(C)C",0.20609999999999995,53.94,160.13320523609,3,3,4,1,2,0,3,11,29,1,0,0,0,0,0,0,0,0,0,0,0.875
"B-1929","n,n'-bis-phenylacetyl-cystine",-1.833,"O=C(Cc1ccccc1)NC(CSSCC(NC(=O)Cc1ccccc1)C(=O)[O-])C(=O)[O-]","O=C(Cc1ccccc1)NC(CSSCC(NC(=O)Cc1ccccc1)C(=O)[O-])C(=O)[O-]",113.63518751490034,"O=C(Cc1ccccc1)NC(CSSCC(NC(=O)Cc1ccccc1)C(=O)[O-])C(=O)[O-]",-0.6773999999999982,138.46,474.0930255838199,8,2,13,2,8,2,10,32,54,2,2,2,0,0,0,0,0,2,0,0,0.2727272727272727
"B-1930","diquat",-3.425,"c1cc[n+]2c(c1)-c1cccc[n+]1CC2","c1cc[n+]2c(c1)-c1cccc[n+]1CC2",108.78333489196613,"c1cc[n+]2c(c1)c1cccc[n+]1CC2",0.9421999999999999,7.76,184.09895122417998,2,0,0,0,0,0,2,14,26,0,3,2,0,1,2,0,1,0,0,0,0.16666666666666666
"B-1932","endothion",0.7286,"COc1coc(CSP(=O)(OC)OC)cc1=O","COC1=COC(CSP(=O)(OC)OC)=CC1=O",-56.0471307499827,"COc1coc(CSP(=O)(OC)OC)cc1=O",2.0915,71.06,280.017045766,6,0,6,0,7,0,8,17,30,0,1,0,0,1,0,0,1,0,0,0,0.4444444444444444
"B-1933","phosphonic acid, (1-hydroxyethylidene)bis-",0.5249,"CC(O)(P(=O)([O-])[O-])P(=O)([O-])[O-]","CC(O)(P(=O)([O-])[O-])P(=O)([O-])[O-]",420.14593812691373,"CC(O)(P(=O)([O-])[O-])P(=O)([O-])[O-]",-3.5201999999999996,146.61,201.94542004764003,7,1,2,1,7,0,9,11,15,0,0,0,0,0,0,0,0,0,0,0,1
"B-1936","4-oxo-pent-2-enoic acid",-0.2332,"CC(=O)C=CC(=O)[O-]","CC(=O)C=CC(=O)[O-]",2.9652874617250404,"CC(=O)C=CC(=O)[O-]",-1.1185,57.2,113.02441759991001,3,0,2,0,3,0,3,8,13,0,0,0,0,0,0,0,0,0,0,0,0.2
"B-1938","butanoic acid, 2-amino-, (.+-.)-",0.2868,"CCC([NH3+])C(=O)[O-]","CCC([NH3+])C(=O)[O-]",-63.98980223584853,"CCC([NH3+])C(=O)[O-]",-2.243199999999999,67.77,103.063328528,3,3,2,1,2,0,3,7,16,1,0,0,0,0,0,0,0,0,0,0,0.75
"B-1942","cyclopentanecarbonitrile, 2-oxo-",-0.3567,"N#CC1CCCC1=O","N#CC1CCCC1=O",-1.8356087198855473,"N#CC1CCCC1=O",0.8791800000000001,40.86,109.052763844,2,0,0,0,2,0,2,8,15,1,1,0,1,1,0,0,0,0,1,1,0.6666666666666666
"B-1943","carbamic acid, diethylthio-, s-ethyl ester",-1.6917,"CCSC(=O)N(CC)CC","CCSC(=O)N(CC)CC",-44.99615219641183,"CCSC(=O)N(CC)CC",2.2013,20.310000000000002,161.0874351,2,0,3,0,2,1,3,10,25,0,0,0,0,0,0,0,0,0,0,0,0.8571428571428571
"B-1944","phosphonic acid, phenyl, di-2-propenyl ester",-2.8999,"C=CCOP(=O)(OCC=C)c1ccccc1","C=CCOP(=O)(OCC=C)c1ccccc1",-61.13828520171734,"C=CCOP(=O)(OCC=C)c1ccccc1",2.9102000000000015,35.53,238.07588097,3,0,7,0,3,0,4,16,31,0,1,1,0,0,0,0,0,1,0,0,0.16666666666666666
"B-1945","phosphinic acid, dibutyl-, butyl ester",-1.7166,"CCCCOP(=O)(CCCC)CCCC","CCCCOP(=O)(CCCC)CCCC",-9.657415786573829,"CCCCOP(=O)(CCCC)CCCC",4.6814000000000044,26.3,234.174866734,2,0,10,0,2,0,3,15,42,0,0,0,0,0,0,0,0,0,0,0,1
"B-1950","propanoic acid, 2-(acetyloxy)-, ethyl ester",-0.6994,"CCOC(=O)C(C)OC(C)=O","CCOC(=O)C(C)OC(C)=O",-2.906927222944608,"CCOC(=O)C(C)OC(=O)C",0.5010999999999999,52.6,160.073558864,4,0,3,0,4,0,4,11,23,1,0,0,0,0,0,0,0,0,0,0,0.7142857142857143
"B-1951","thiocyanic acid, 4-aminophenyl ester",-2.6015,"N#CSc1ccc(N)cc1","N#CSc1ccc(N)cc1",11.711215724789957,"N#CSc1ccc(N)cc1",1.84198,49.81,150.025169192,2,2,1,1,3,0,3,10,16,0,1,1,0,0,0,0,0,1,0,0,0
"B-1952","1h-purin-2-amine, 6-(trifluoromethyl)-",-3.1346,"Nc1nc(C(F)(F)F)c2[nH]cnc2n1","Nc1nc(C(F)(F)F)c2[nH]cnc2n1",-7.1902293222711835,"Nc1nc(C(F)(F)F)c2[nH]cnc2n1",0.9539,80.48,203.041879788,5,3,0,2,4,0,8,14,18,0,2,2,0,0,2,0,0,0,0,0,0.16666666666666666
"B-1953","ipatone",-4.889,"CCN(CC)c1nc(NC(C)C)nc(OC)n1","CCN(CC)c1nc(NC(C)C)nc(OC)n1",-209.97415915233634,"CCN(CC)c1nc(NC(C)C)nc(OC)n1",1.5466999999999997,63.17,239.17461029199998,6,1,6,1,6,0,6,17,38,0,1,1,0,0,1,0,0,0,0,0,0.7272727272727273
"B-1955","4-formyl-2-nitrophenol",-2.9512,"O=Cc1ccc([O-])c([N+](=O)[O-])c1","O=Cc1ccc([O-])c([N+](=O)[O-])c1",57.175333173361935,"O=Cc1ccc([O-])c([N+](=O)[O-])c1",0.4808999999999999,83.27,166.01458118791,5,0,2,0,4,0,5,12,16,0,1,1,0,0,0,0,0,1,0,0,0
"B-1957","g-32292 (aratone)",-1.7509,"CNc1nc(NC(C)C)nc(OC)n1","CNc1nc(NC(C)C)nc(OC)n1",-185.95603336885787,"CNc1nc(NC(C)C)nc(OC)n1",0.7421999999999997,71.96000000000001,197.12766009999999,6,2,4,2,6,0,6,14,29,0,1,1,0,0,1,0,0,0,0,0,0.625
"B-1960","l-leucine, n-methyl-",-0.5146,"C[NH2+][C@@H](CC(C)C)C(=O)[O-]","C[NH2+][C@@H](CC(C)C)C(=O)[O-]",-40.19413484516171,"C[NH2+][C@@H](CC(C)C)C(=O)[O-]",-1.6557999999999982,56.739999999999995,145.11027872,3,2,4,1,2,0,3,10,25,1,0,0,0,0,0,0,0,0,0,0,0.8571428571428571
"B-1961","dl-valine, n-acetyl-",-0.6325,"CC(=O)NC(C(=O)[O-])C(C)C","CC(=O)NC(C(=O)[O-])C(C)C",33.97261318638039,"CC(=O)NC(C(=O)[O-])C(C)C",-1.1029999999999998,69.23,158.08226682391,4,1,3,1,3,1,4,11,23,1,0,0,0,0,0,0,0,0,0,0,0.7142857142857143
"B-1963","1,1,3-trimethylcyclohexane",-4.8532,"CC1CCCC(C)(C)C1","CC1CCCC(C)(C)C1",12.750100161286777,"CC1CCCC(C)(C)C1",3.2227000000000023,0,126.14085057599999,0,0,0,0,0,0,0,9,27,1,1,0,1,1,0,0,0,0,1,1,1
"B-1964","glycine, n-(2-cyanoethyl)-",0.3237,"N#CCC[NH2+]CC(=O)[O-]","N#CCC[NH2+]CC(=O)[O-]",-74.787053787511,"N#CCC[NH2+]CC(=O)[O-]",-2.786619999999999,80.53,128.058577496,4,2,4,1,3,0,4,9,17,0,0,0,0,0,0,0,0,0,0,0,0.6
"B-1965","dl-alloisoleucine",-0.3895,"CC[C@@H](C)[C@H]([NH3+])C(=O)[O-]","CC[C@@H](C)[C@H]([NH3+])C(=O)[O-]",-62.40938599904031,"CC[C@@H](C)[C@H]([NH3+])C(=O)[O-]",-1.6070999999999982,67.77,131.094628656,3,3,3,1,2,0,3,9,22,2,0,0,0,0,0,0,0,0,0,0,0.8333333333333334
"B-1966","1-butanone, 1-(4-fluorophenyl)-4-(4-hydroxy-4-ph",-4.1183,"O=C(CCC[NH+]1CCC(O)(c2ccccc2)CC1)c1ccc(F)cc1","O=C(CCC[NH+]1CCC(O)(c2ccccc2)CC1)c1ccc(F)cc1",9.620301291430627,"O=C(CCC[NH+]1CCC(O)(c2ccccc2)CC1)c1ccc(F)cc1",2.355100000000001,41.74,342.18638368009,3,2,6,2,2,0,4,25,50,0,3,2,1,1,0,1,1,2,0,0,0.38095238095238093
"B-1967","4,4-dimethyl-1-pentanol",-1.5402,"CC(C)(C)CCCO","CC(C)(C)CCCO",4.600055885195378,"CC(C)(C)CCCO",1.8050000000000002,20.23,116.120115132,1,1,2,1,1,0,1,8,24,0,0,0,0,0,0,0,0,0,0,0,1
"B-1968","l-asparagine, n2-(aminocarbonyl)-",-0.511,"NC(=O)C[C@H](NC(N)=O)C(=O)[O-]","NC(=O)C[C@H](NC(N)=O)C(=O)[O-]",0.6573134455374614,"NC(=O)C[C@H](NC(=O)N)C(=O)[O-]",-3.3514,138.34,174.05202931591,7,5,4,3,4,3,7,12,20,1,0,0,0,0,0,0,0,0,0,0,0.4
"B-1971","glycine, n-(n-leucylglycyl)-",0.2124,"CC(C)C[C@H]([NH3+])C(=O)NCC(=O)NCC(=O)[O-]","CC(C)C[C@H]([NH3+])C(=O)NCC(=O)NCC(=O)[O-]",-72.81418363920457,"CC(C)C[C@H]([NH3+])C(=O)NCC(=O)NCC(=O)[O-]",-3.374699999999997,125.97,245.137556088,7,5,7,3,4,2,7,17,36,1,0,0,0,0,0,0,0,0,0,0,0.7
"B-1972","d-glycero-d-gulo-heptose",-0.3226,"O=CC(O)C(O)C(O)C(O)C(O)CO","O=CC(O)C(O)C(O)C(O)C(O)CO",18.83263667036273,"O=CC(O)C(O)C(O)C(O)C(O)CO",-4.0179,138.45000000000002,210.073952788,7,6,6,6,7,0,7,14,28,5,0,0,0,0,0,0,0,0,0,0,0.8571428571428571
"B-1973","benzoic acid, 2-hydroxy-5-(phenylazo)-",-3.0559,"O=C([O-])C1=CC(=NNc2ccccc2)C=CC1=O","O=C([O-])C1=CC(=NNc2ccccc2)C=CC1=O",7.841526739636043,"O=C([O-])C1=CC(=NNc2ccccc2)C=CC1=O",0.2696999999999996,81.59,241.06186572791,5,1,3,1,5,0,5,18,27,0,2,1,0,1,0,0,0,1,0,1,0
"B-1974","benzenebutanoic acid, 4-methoxy--oxo-",-1.0632,"COc1ccc(C(=O)CCC(=O)[O-])cc1","COc1ccc(C(=O)CCC(=O)[O-])cc1",13.089065131429003,"COc1ccc(C(=O)CCC(=O)[O-])cc1",0.4079999999999998,66.43,207.06628241191,4,0,5,0,4,0,4,15,26,0,1,1,0,0,0,0,0,1,0,0,0.2727272727272727
"B-1975","butanoic acid, 2-[(aminoiminomethyl)amino]-",-0.8608,"CCC(NC=N[NH3+])C(=O)[O-]","CCC(NC=N[NH3+])C(=O)[O-]",-35.94631402598986,"CCC(NC=N[NH3+])C(=O)[O-]",-2.7102999999999984,92.16,145.085126592,5,4,4,2,3,0,5,10,21,1,0,0,0,0,0,0,0,0,0,0,0.6
"B-1978","lactic acid, 2-methyl-, isobutyl ester",-0.7276,"CC(C)COC(=O)C(C)(C)O","CC(C)COC(=O)C(C)(C)O",16.698663029672673,"CC(C)COC(=O)C(C)(C)O",0.9564999999999999,46.53,160.109944372,3,1,3,1,3,0,3,11,27,0,0,0,0,0,0,0,0,0,0,0,0.875
"B-1979","morpholine, 4-(2-hydroxybenzoyl)-",-1.7037,"O=C(c1ccccc1O)N1CCOCC1","O=C(c1ccccc1O)N1CCOCC1",52.69178815215028,"O=C(c1ccccc1O)N1CCOCC1",0.8646,49.769999999999996,207.089543276,4,1,1,1,3,1,4,15,28,0,2,1,1,1,0,1,1,1,0,0,0.36363636363636365
"B-1982","tetrapropyl thiopyrophosphorate",-4.1009,"CCCOP(=S)(OCCC)OP(=S)(OCCC)OCCC","CCCOP(=S)(OCCC)OP(=S)(OCCC)OCCC",-219.81261518651846,"CCCOP(=S)(OCCC)OP(=S)(OCCC)OCCC",5.158400000000005,46.150000000000006,378.08533925599994,5,0,14,0,7,0,9,21,49,0,0,0,0,0,0,0,0,0,0,0,1
"B-1983","1,10-phenanthroline, 4,7-dimethyl-",-3.9686,"Cc1ccnc2c1ccc1c(C)ccnc12","Cc1ccnc2c1ccc1c(C)ccnc12",83.79276389315315,"Cc1ccnc2c1ccc1c(C)ccnc21",3.399840000000002,25.78,208.100048384,2,0,0,0,2,0,2,16,28,0,3,3,0,0,2,0,0,1,0,0,0.14285714285714285
"B-1984","peroxide, bis(1-oxopropyl)",-0.9634,"CCC(=O)OOC(=O)CC","CCC(=O)OOC(=O)CC",9.989761117562999,"CCC(=O)OOC(=O)CC",0.8077999999999999,52.6,146.0579088,4,0,2,0,4,0,4,10,20,0,0,0,0,0,0,0,0,0,0,0,0.6666666666666666
"B-1989","1-naphthalenecarboxylic acid, 3,4-dihydro-",-2.7939,"O=C([O-])C1=CCCc2ccccc21","O=C([O-])C1=CCCc2ccccc21",40.09568940927147,"O=C([O-])C1=CCCc2ccccc12",0.7660999999999999,40.129999999999995,173.06080310791,2,0,1,0,2,0,2,13,22,0,2,1,0,1,0,0,0,1,0,1,0.18181818181818182
"B-1990","d-glycero-l-gulo-heptitol",0.3722,"OCC(O)C(O)C(O)C(O)C(O)CO","OCC(O)C(O)C(O)C(O)C(O)CO",25.43387419146875,"OCC(O)C(O)C(O)C(O)C(O)CO",-4.224499999999998,141.61,212.089602852,7,7,6,7,7,0,7,14,30,4,0,0,0,0,0,0,0,0,0,0,1
"B-1991","2-cyclohexen-1-one, oxime, (e)-",-0.7034,"ON=C1C=CCCC1","ON=C1C=CCCC1",13.378478619532306,"ON=C1C=CCCC1",1.5567,32.59,111.068413908,2,1,0,1,2,0,2,8,17,0,1,0,0,1,0,0,0,0,0,1,0.5
"B-1993","1-butene, 4-isothiocyanato-",-2.391,"C=CCCN=C=S","C=CCCN=C=S",-0.36414596682897304,"C=CCCN=C=S",1.6653,12.36,113.029920224,1,0,3,0,2,0,2,7,14,0,0,0,0,0,0,0,0,0,0,0,0.4
"B-1996","propanamide, n,n'-1,2-ethanediylbis-",0.3746,"CCC(=O)NCCNC(=O)CC","CCC(=O)NCCNC(=O)CC",-18.096003516211223,"CCC(=O)NCCNC(=O)CC",0.03879999999999928,58.2,172.121177752,4,2,5,2,2,2,4,12,28,0,0,0,0,0,0,0,0,0,0,0,0.75
"B-2003","2,2,5-trimethylhexane",-5.0474,"CC(C)CCC(C)(C)C","CC(C)CCC(C)(C)C",4.178244564456348,"CC(C)CCC(C)(C)C",3.468700000000003,0,128.15650064,0,0,2,0,0,0,0,9,29,0,0,0,0,0,0,0,0,0,0,0,1
"B-2004","carbamic acid, diethyl-, ethyl ester",-1.0651,"CCOC(=O)N(CC)CC","CCOC(=O)N(CC)CC",-54.92053579944302,"CCOC(=O)N(CC)CC",1.4847,29.54,145.11027872,3,0,3,0,2,1,3,10,25,0,0,0,0,0,0,0,0,0,0,0,0.8571428571428571
"B-2005","2,4,6-trihydroxybenzophenone",-1.8708,"O=C(c1ccccc1)c1c(O)cc(O)cc1O","O=C(c1ccccc1)c1c(O)cc(O)cc1O",40.48803537452268,"O=C(c1ccccc1)c1c(O)cc(O)cc1O",2.0344,77.76,230.0579088,4,3,2,3,4,0,4,17,27,0,2,2,0,0,0,0,0,2,0,0,0
"B-2007","sulfanilamide, n1-(5-isobutyl-1,3,4-thiadiazol-2",-3.8226,"CC(C)Cc1nnc(NS(=O)(=O)c2ccc(N)cc2)s1","CC(C)Cc1nnc(NS(=O)(=O)c2ccc(N)cc2)s1",-30.540468917252987,"CC(C)Cc1nnc(NS(=O)(=O)c2ccc(N)cc2)s1",2.1196,97.97,312.071467752,6,3,5,2,6,0,8,20,36,0,2,2,0,0,1,0,0,1,0,0,0.3333333333333333
"B-2010","propanedioic acid, nonyl-",-3.3016,"CCCCCCCCCC(C(=O)[O-])C(=O)[O-]","CCCCCCCCCC(C(=O)[O-])C(=O)[O-]",41.72211189303819,"CCCCCCCCCC(C(=O)[O-])C(=O)[O-]",0.24309999999999943,80.25999999999999,228.13725627982,4,0,10,0,4,0,4,16,36,0,0,0,0,0,0,0,0,0,0,0,0.8333333333333334
"B-2012","reposal",-2.7696,"CCC1(C2=CC3CCC(C2)C3)C(=O)NC(=O)NC1=O","CCC1(C2=CC3CCC(C2)C3)C(=O)NC(=O)NC1=O",-1.7328419323886308,"CCC1(C2=CC3CCC(C2)C3)C(=O)NC(=O)NC1=O",1.4951999999999996,75.27000000000001,262.131742436,5,2,2,2,3,4,5,19,37,2,3,0,2,3,0,1,1,0,1,2,0.6428571428571429
"B-2013","butanedioic acid, methyl-, (r)-",0.6311,"C[C@H](CC(=O)[O-])C(=O)[O-]","C[C@H](CC(=O)[O-])C(=O)[O-]",62.97215644708958,"C[C@H](CC(=O)[O-])C(=O)[O-]",-2.4875999999999987,80.25999999999999,130.02770583182001,4,0,3,0,4,0,4,9,15,1,0,0,0,0,0,0,0,0,0,0,0.6
"B-2014","d-gluconic acid, 2-amino-2-deoxy-",-0.859,"[NH3+]C(C(=O)[O-])C(O)C(O)C(O)CO","[NH3+]C(C(=O)[O-])C(O)C(O)C(O)CO",-93.18346720810852,"[NH3+]C(C(=O)[O-])C(O)C(O)C(O)CO",-5.578199999999996,148.69,195.074287136,7,7,5,5,6,0,7,13,26,4,0,0,0,0,0,0,0,0,0,0,0.8333333333333334
"B-2015","benzeneethanamine, n-(phenylmethyl)-",-2.7229,"c1ccc(CC[NH2+]Cc2ccccc2)cc1","c1ccc(CC[NH2+]Cc2ccccc2)cc1",20.373227982131837,"c1ccc(CC[NH2+]Cc2ccccc2)cc1",1.9926999999999995,16.61,212.14337599609,1,2,5,1,0,0,1,16,34,0,2,2,0,0,0,0,0,2,0,0,0.2
"B-2016","4-ethylacetanilide",-2.1453,"CCc1ccc(NC(C)=O)cc1","CCc1ccc(NC(C)=O)cc1",14.881545874870374,"CCc1ccc(NC(=O)C)cc1",2.2074,29.1,163.099714036,2,1,2,1,1,1,2,12,25,0,1,1,0,0,0,0,0,1,0,0,0.3
"B-2017","undecanoic acid, 11-hydroxy-",-2.7039,"O=C([O-])CCCCCCCCCCO","O=C([O-])CCCCCCCCCCO",1.9535721228089438,"O=C([O-])CCCCCCCCCCO",1.2394999999999996,60.36,201.14961811191,3,1,10,1,3,0,3,14,35,0,0,0,0,0,0,0,0,0,0,0,0.9090909090909091
"B-2018","spiro[benzofuran-2(3h), 1'-[2]cyclohexene]-3,4'-",-3.699,"COC1=CC(=O)CC(C)C12Oc1cc(OC)cc(OC)c1C2=O","COC1=CC(=O)CC(C)C12Oc1cc(OC)cc(OC)c1C2=O",85.39163142449736,"COC1=CC(=O)CC(C)C21Oc1cc(OC)cc(OC)c1C2=O",2.1569000000000003,71.06,318.110338296,6,0,3,0,6,0,6,23,41,2,3,1,0,2,0,0,1,1,0,1,0.4117647058823529
"B-2019","butanal, 3-ethoxy-2-oxo-",-0.1554,"CCOC(C)C(=O)C=O","CCOC(C)C(=O)C=O",42.41607326918725,"CCOC(C)C(=O)C=O",0.1794,43.370000000000005,130.06299418,3,0,4,0,3,0,3,9,19,1,0,0,0,0,0,0,0,0,0,0,0.6666666666666666
"B-2021","5-methylchrysene",-6.592,"Cc1cc2ccccc2c2ccc3ccccc3c12","Cc1cc2ccccc2c2ccc3ccccc3c12",60.538206123471475,"Cc1cc2ccccc2c2ccc3ccccc3c12",5.454620000000004,0,242.109550448,0,0,0,0,0,0,0,19,33,0,4,4,0,0,0,0,0,4,0,0,0.05263157894736842
"B-2022","5,6-dimethylchrysene",-7.0109,"Cc1c(C)c2c3ccccc3ccc2c2ccccc12","Cc1c(C)c2c3ccccc3ccc2c2ccccc12",66.42687132861472,"Cc1c(C)c2c3ccccc3ccc2c2ccccc12",5.763040000000004,0,256.125200512,0,0,0,0,0,0,0,20,36,0,4,4,0,0,0,0,0,4,0,0,0.1
"B-2023","7-ethylbenz(a)anthracene",-6.796,"CCc1c2ccccc2cc2c1ccc1ccccc12","CCc1c2ccccc2cc2c1ccc1ccccc12",58.27357190431504,"CCc1c2ccccc2cc2c1ccc1ccccc21",5.708600000000004,0,256.125200512,0,0,1,0,0,0,0,20,36,0,4,4,0,0,0,0,0,4,0,0,0.1
"B-2024","1,3-benzenedisulfonamide",-2.1693,"NS(=O)(=O)c1cccc(S(N)(=O)=O)c1","NS(=O)(=O)c1cccc(S(N)(=O)=O)c1",10.164571115563461,"NS(=O)(=O)c1cccc(S(=O)(=O)N)c1",-1.0185999999999997,120.32,235.992548736,6,4,2,2,4,0,8,14,22,0,1,1,0,0,0,0,0,1,0,0,0
"B-2025","3,5-dimethylpyridine-n-oxide",0.9095,"Cc1cc(C)c[n+]([O-])c1","Cc1cc(C)c[n+]([O-])c1",21.31102931614427,"Cc1cc(C)c[n+]([O-])c1",0.93684,26.939999999999998,123.068413908,2,0,0,0,1,0,2,9,18,0,1,1,0,0,1,0,0,0,0,0,0.2857142857142857
"B-2026","2-pyridinemethaneamine",0.966,"[NH3+]Cc1ccccn1","[NH3+]Cc1ccccn1",13.533653866277508,"[NH3+]Cc1ccccn1",-0.17650000000000032,40.53,109.07602470808999,2,3,1,1,1,0,2,8,17,0,1,1,0,0,1,0,0,0,0,0,0.16666666666666666
"B-2027","4-pyridinemethaneamine",0.966,"[NH3+]Cc1ccncc1","[NH3+]Cc1ccncc1",19.53215991565999,"[NH3+]Cc1ccncc1",-0.17650000000000032,40.53,109.07602470809,2,3,1,1,1,0,2,8,17,0,1,1,0,0,1,0,0,0,0,0,0.16666666666666666