"ID","Name","Solubility","SMILES Canonical","Smiles (Optimized Geometry)","Energy","Smiles","SlogP","TPSA","ExactMW","NumLipinskiHBA","NumLipinskiHBD","NumRotatableBonds","NumHBD","NumHBA","NumAmideBonds","NumHeteroAtoms","NumHeavyAtoms","NumAtoms","NumStereocenters","NumRings","NumAromaticRings","NumSaturatedRings","NumAliphaticRings","NumAromaticHeterocycles","NumSaturatedHeterocycles","NumAliphaticHeterocycles","NumAromaticCarbocycles","NumSaturatedCarbocycles","NumAliphaticCarbocycles","FractionCSP3"
"A-3907","1-nitroguanidine",-1.4858424644,"NC(N)=N[N+](=O)[O-]","NC(N)=N[N+](=O)[O-]",-33.618815449902186,"NC(=N[N+](=O)[O-])N",-1.5484999999999998,107.54000000000002,104.033425368,6,4,1,2,2,0,6,7,11,0,0,0,0,0,0,0,0,0,0,0,0
"A-3908","2-(trifluoromethyl)aniline",-1.6756867087,"Nc1ccccc1C(F)(F)F","Nc1ccccc1C(F)(F)F",9.108396842219648,"Nc1ccccc1C(F)(F)F",2.2876000000000003,26.02,161.045233852,1,2,0,1,1,0,4,11,17,0,1,1,0,0,0,0,0,1,0,0,0.14285714285714285
"A-3909","1-[4-(4-hydroxyphenyl)piperazin-1-yl]ethan-1-one",-1.817914488,"CC(=O)N1CCN(c2ccc(O)cc2)CC1","CC(=O)N1CCN(c2ccc(O)cc2)CC1",69.40923258671064,"CC(=O)N1CCN(c2ccc(O)cc2)CC1",1.0607,43.78,220.121177752,4,1,1,1,3,1,4,16,32,0,2,1,1,1,0,1,1,1,0,0,0.4166666666666667
"A-3910","4-(oxiran-2-ylmethoxy)-N,N-bis(oxiran-2-ylmethyl)aniline",-1.9192347247,"c1cc(N(CC2CO2)CC2CO2)ccc1OCC1CO1","c1cc(N(CC2CO2)CC2CO2)ccc1OCC1CO1",43.731964939774485,"c1cc(N(CC2CO2)CC2CO2)ccc1OCC1CO1",1.0682,50.06,277.131408088,5,0,8,0,5,0,5,20,39,3,4,1,3,3,0,3,3,1,0,0,0.6
"A-3914","methyl(naphthalen-1-ylmethyl)amine",-1.7150988877,"C[NH2+]Cc1cccc2ccccc12","C[NH2+]Cc1cccc2ccccc12",22.7960160972544,"C[NH2+]Cc1cccc2ccccc12",1.533,16.61,172.11207586809,1,2,2,1,0,0,1,13,27,0,2,2,0,0,0,0,0,2,0,0,0.16666666666666666
"A-3915","N-(2-methoxyphenyl)-3-oxobutanamide",-1.8059055211,"COc1ccccc1NC(=O)CC(C)=O","COc1ccccc1NC(=O)CC(C)=O",9.66395292191191,"COc1ccccc1NC(=O)CC(=O)C",1.6127999999999998,55.4,207.089543276,4,1,4,1,3,1,4,15,28,0,1,1,0,0,0,0,0,1,0,0,0.2727272727272727
"A-3919","2-(propan-2-yloxy)propane",-1.5165927583,"CC(C)OC(C)C","CC(C)OC(C)C",6.653943823957763,"CC(C)OC(C)C",1.8197999999999999,9.23,102.104465068,1,0,2,0,1,0,1,7,21,0,0,0,0,0,0,0,0,0,0,0,1
"A-3922","4-methylbenzene-1-sulfonamide",-1.7421953353,"Cc1ccc(S(N)(=O)=O)cc1","Cc1ccc(S(N)(=O)=O)cc1",9.5803949097524,"Cc1ccc(S(=O)(=O)N)cc1",0.6424200000000002,60.160000000000004,171.035399528,3,2,1,1,2,0,4,11,20,0,1,1,0,0,0,0,0,1,0,0,0.14285714285714285
"A-3926","6-methylhept-5-en-2-one",-1.6210489706,"CC(=O)CCC=C(C)C","CC(=O)CCC=C(C)C",-0.48205183594577194,"CC(=O)CCC=C(C)C",2.3218000000000005,17.07,126.104465068,1,0,3,0,1,0,1,9,23,0,0,0,0,0,0,0,0,0,0,0,0.625
"A-3929","1-[2-(2-butoxyethoxy)ethoxy]butane",-1.862006084,"CCCCOCCOCCOCCCC","CCCCOCCOCCOCCCC",29.35881607708999,"CCCCOCCOCCOCCCC",2.636400000000001,27.69,218.188194692,3,0,12,0,3,0,3,15,41,0,0,0,0,0,0,0,0,0,0,0,1
"A-3931","2-isopropenyl-5-methylcyclohexanol",-1.7111123645,"C=C(C)C1CCC(C)CC1O","C=C(C)C1CCC(C)CC1O",17.69668672887986,"C=C(C)C1CCC(C)CC1O",2.359600000000001,20.23,154.135765196,1,1,1,1,1,0,1,11,29,3,1,0,1,1,0,0,0,0,1,1,0.8
"A-3932","2-methoxy-5-methylaniline",-1.6601758755,"COc1ccc(C)cc1N","COc1ccc(C)cc1N",25.397090980049914,"COc1ccc(C)cc1N",1.58582,35.25,137.084063972,2,2,1,1,2,0,2,10,21,0,1,1,0,0,0,0,0,1,0,0,0.25
"A-3935","5-methylheptan-3-one",-1.630817582,"CCC(=O)CC(C)CC","CCC(=O)CC(C)CC",8.809931090633665,"CCC(=O)CC(C)CC",2.401700000000001,17.07,128.120115132,1,0,4,0,1,0,1,9,25,1,0,0,0,0,0,0,0,0,0,0,0.875
"A-3950","N,N-bis(carboxymethyl)-L-glutamic acid",0.0436038039,"O=C([O-])CCC(C(=O)[O-])[NH+](CC(=O)[O-])CC(=O)[O-]","O=C([O-])CCC(C(=O)[O-])[NH+](CC(=O)[O-])CC(=O)[O-]",229.65449498110675,"O=C([O-])CCC(C(=O)[O-])[NH+](CC(=O)[O-])CC(=O)[O-]",-7.980300000000004,164.95999999999998,260.04228701973005,9,1,9,1,8,0,9,18,28,1,0,0,0,0,0,0,0,0,0,0,0.5555555555555556
"A-3954","isopropenyl acetate",-0.5277513782,"C=C(C)OC(C)=O","C=C(C)OC(C)=O",13.375857644961,"C=C(C)OC(=O)C",1.0831,26.3,100.052429496,2,0,1,0,2,0,2,7,15,0,0,0,0,0,0,0,0,0,0,0,0.4
"A-3955","1,2,3,6-tetrahydrophthalic anhydride",-0.7139217719,"O=C1OC(=O)C2CC=CCC12","O=C1OC(=O)C2CC=CCC12",-39.58187278092736,"O=C1OC(=O)C2CC=CCC12",0.6521999999999999,43.370000000000005,152.04734411599998,3,0,0,0,3,0,3,11,19,2,2,0,1,2,0,1,1,0,0,1,0.5
"A-3964","(8R,9S,10R,14S)-13-ethyl-1,2,6,7,8,9,10,11,12,14,15,16-dodecahydrocyclopenta[a]phenanthrene-3,17-dione",-3.7327198893,"CCC12CC[C@@H]3[C@H]4CCC(=O)C=C4CC[C@H]3[C@@H]1CCC2=O","CCC12CC[C@@H]3[C@H]4CCC(=O)C=C4CC[C@H]3[C@@H]1CCC2=O",51.37791193735136,"CCC12CC[C@@H]3[C@H]4CCC(=O)C=C4CC[C@H]3[C@@H]1CCC2=O",4.087400000000003,34.14,286.193280072,2,0,1,0,2,0,2,21,47,5,4,0,3,4,0,0,0,0,3,4,0.7894736842105263
"A-3965","2-amino-3-(phosphonooxy)propanoic acid",-0.8149408723,"[NH3+][C@@H](COP(=O)([O-])[O-])C(=O)[O-]","[NH3+][C@@H](COP(=O)([O-])[O-])C(=O)[O-]",-216.9319252766166,"[NH3+][C@@H](COP(=O)([O-])[O-])C(=O)[O-]",-4.807899999999999,140.19,182.99437070182,7,3,4,1,6,0,8,11,17,1,0,0,0,0,0,0,0,0,0,0,0.6666666666666666
"A-3975","pivalic acid",-0.5635618856,"CC(C)(C)C(=O)[O-]","CC(C)(C)C(=O)[O-]",10.897092511895721,"CC(C)(C)C(=O)[O-]",-0.21760000000000002,40.129999999999995,101.06080310791,2,0,0,0,2,0,2,7,16,0,0,0,0,0,0,0,0,0,0,0,0.8
"A-3976","1-(2-hydroxyethyl)-2,2,6,6-tetramethylpiperidin-4-ol",-0.8598205529,"CC1(C)CC(O)CC(C)(C)[NH+]1CCO","CC1(C)CC(O)CC(C)(C)[NH+]1CCO",8.536506652436572,"CC1(C)CC(O)CC(C)(C)[NH+]1CCO",-0.42449999999999916,44.900000000000006,202.18015542809,3,3,2,3,2,0,3,14,38,0,1,0,1,1,0,1,1,0,0,0,1
"A-3977","diethyl(prop-2-yn-1-yl)amine",-0.6020131225,"C#CC[NH+](CC)CC","C#CC[NH+](CC)CC",-12.789320392902534,"C#CC[NH+](CC)CC",-0.4557,4.44,112.11207586808999,1,1,3,1,0,0,1,8,22,0,0,0,0,0,0,0,0,0,0,0,0.7142857142857143
"A-3992","1,3-dioxepane",0.4107896597,"C1CCOCOC1","C1CCOCOC1",-10.035002081851143,"C1CCOCOC1",0.7709,18.46,102.06807956,2,0,0,0,2,0,2,7,17,0,1,0,1,1,0,1,1,0,0,0,1
"A-4001","2-methylphenol",-0.6190130173,"Cc1ccccc1O","Cc1ccccc1O",13.155758713168991,"Cc1ccccc1O",1.70062,20.23,108.057514876,1,1,0,1,1,0,1,8,16,0,1,1,0,0,0,0,0,1,0,0,0.14285714285714285
"A-4006","dimethyl[2-[(2-methyl-1-oxoallyl)oxy]ethyl](3-sulphopropyl)ammonium hydroxide",0.9627399696,"C=C(C)C(=O)OCC[N+](C)(C)CCCS(=O)(=O)[O-]","C=C(C)C(=O)OCC[N+](C)(C)CCCS(=O)(=O)[O-]",-88.43061865853514,"C=C(C)C(=O)OCC[N+](C)(C)CCCS(=O)(=O)[O-]",0.11740000000000039,83.5,279.114043772,6,0,8,0,5,0,7,18,39,0,0,0,0,0,0,0,0,0,0,0,0.7272727272727273
"A-4017","2-phenoxyethan-1-ol",-0.742461176,"OCCOc1ccccc1","OCCOc1ccccc1",26.652141705999593,"OCCOc1ccccc1",1.0576999999999999,29.46,138.06807956,2,1,3,1,2,0,2,10,20,0,1,1,0,0,0,0,0,1,0,0,0.25
"A-4024","N'-acetylacetohydrazide",0.3286681761,"CC(=O)NNC(C)=O","CC(=O)NNC(C)=O",0.062215913251615795,"CC(=O)NNC(=O)C",-0.8264,58.2,116.058577496,4,2,0,2,2,2,4,8,16,0,0,0,0,0,0,0,0,0,0,0,0.5
"A-4025","ethyl 2-cyclohexylpropanoate",-3.3274567494,"CCOC(=O)C(C)C1CCCCC1","CCOC(=O)C(C)C1CCCCC1",1.036601540137812,"CCOC(=O)C(C)C1CCCCC1",2.765900000000001,26.3,184.14632988,2,0,3,0,2,0,2,13,33,1,1,0,1,1,0,0,0,0,1,1,0.9090909090909091
"A-4029","2-(dimethylamino)ethyl acrylate",0.2243106848,"C=CC(=O)OCC[NH+](C)C","C=CC(=O)OCC[NH+](C)C",-7.145466100087525,"C=CC(=O)OCC[NH+](C)C",-1.1398999999999986,30.740000000000002,144.10190510809,3,1,4,1,2,0,3,10,24,0,0,0,0,0,0,0,0,0,0,0,0.5714285714285714
"A-4030","4-methyl-1,3-dioxolan-2-one",0.371232292,"CC1COC(=O)O1","CC1COC(=O)O1",-17.341514061308615,"CC1COC(=O)O1",0.5417000000000001,35.53,102.031694052,3,0,0,0,3,0,3,7,13,1,1,0,1,1,0,1,1,0,0,0,0.75
"A-4031","(4-methoxyphenyl)methanol",-0.7447271456,"COc1ccc(CO)cc1","COc1ccc(CO)cc1",20.831498495872047,"COc1ccc(CO)cc1",1.1874999999999998,29.46,138.06807956,2,1,2,1,2,0,2,10,20,0,1,1,0,0,0,0,0,1,0,0,0.25
"A-4034","1-ethynylcyclohexanol",-0.7048960629,"C#CC1(O)CCCCC1","C#CC1(O)CCCCC1",10.45083307980946,"C#CC1(O)CCCCC1",1.3148,20.23,124.088815004,1,1,0,1,1,0,1,9,21,0,1,0,1,1,0,0,0,0,1,1,0.75
"A-4036","1,3-dioxo-1,3-dihydro-2-benzofuran-5-carboxylic acid",-0.8961963146,"O=C([O-])c1ccc2c(c1)C(=O)OC2=O","O=C([O-])c1ccc2c(c1)C(=O)OC2=O",-10.722468492780425,"O=C([O-])c1ccc2c(c1)C(=O)OC2=O",-0.6393,83.5,190.99859677591002,5,0,1,0,5,0,5,14,17,0,2,1,0,1,0,0,1,1,0,0,0
"A-4040","3-hydroxy-2,2-dimethylpropyl 3-hydroxy-2,2-dimethylpropanoate",0.0682018165,"CC(C)(CO)COC(=O)C(C)(C)CO","CC(C)(CO)COC(=O)C(C)(C)CO",-13.139280981001574,"CC(C)(CO)COC(=O)C(C)(C)CO",0.5665999999999998,66.76,204.13615912,4,2,5,2,4,0,4,14,34,0,0,0,0,0,0,0,0,0,0,0,0.9
"A-4047","3-methylphenol",-0.662918503,"Cc1cccc(O)c1","Cc1cccc(O)c1",13.920966510987157,"Cc1cccc(O)c1",1.7006199999999998,20.23,108.057514876,1,1,0,1,1,0,1,8,16,0,1,1,0,0,0,0,0,1,0,0,0.14285714285714285
"A-4074","butyldimethylamine",-0.6670324644,"CCCC[NH+](C)C","CCCC[NH+](C)C",0.3056346705265471,"CCCC[NH+](C)C",-0.0689999999999995,4.44,102.12772593208999,1,1,3,1,0,0,1,7,23,0,0,0,0,0,0,0,0,0,0,0,1
"A-4082","ethane-1,2-diyl bis(3-oxobutanoate)",-0.0337559003,"CC(=O)CC(=O)OCCOC(=O)CC(C)=O","CC(=O)CC(=O)OCCOC(=O)CC(C)=O",-44.94340605350419,"CC(=O)CC(=O)OCCOC(=O)CC(=O)C",0.03100000000000014,86.74000000000001,230.079038168,6,0,7,0,6,0,6,16,30,0,0,0,0,0,0,0,0,0,0,0,0.6
"A-4093","2-ethyl-2-{[2-ethyl-3-hydroxy-2-(hydroxymethyl)propoxy]methyl}propane-1,3-diol",-1.076302279,"CCC(CO)(CO)COCC(CC)(CO)CO","CCC(CO)(CO)COCC(CC)(CO)CO",-0.3642205390899145,"CCC(CO)(CO)COCC(CC)(CO)CO",-0.2350000000000002,90.15,250.178023932,5,4,10,4,5,0,5,17,43,0,0,0,0,0,0,0,0,0,0,0,1
"A-4094","methyl 3-sulfanylpropanoate",-0.7575876083,"COC(=O)CCS","COC(=O)CCS",-20.812898619475796,"COC(=O)CCS",0.4792999999999999,26.3,120.024500496,2,0,2,1,3,0,3,7,15,0,0,0,0,0,0,0,0,0,0,0,0.75
"A-4097","(4-methyl-1H-imidazol-5-yl)methanol",0.2683337666,"Cc1[nH]cnc1CO","Cc1[nH]cnc1CO",21.034842481036772,"Cc1[nH]cnc1CO",0.21041999999999994,48.91,112.063662876,3,2,1,2,2,0,3,8,16,0,1,1,0,0,1,0,0,0,0,0,0.4
"A-4112","2,6,6-trimethylcyclohex-2-ene-1,4-dione",-0.8779041501,"CC1=CC(=O)CC(C)(C)C1=O","CC1=CC(=O)CC(C)(C)C1=O",2.4562141219195373,"CC1=CC(=O)CC(C)(C)C1=O",1.5008,34.14,152.083729624,2,0,0,0,2,0,2,11,23,0,1,0,0,1,0,0,0,0,0,1,0.5555555555555556
"A-4114","2-[4-(2-hydroxyethoxy)but-2-ynoxy]ethanol",0.7589618218,"OCCOCC#CCOCCO","OCCOCC#CCOCCO",16.66067253716939,"OCCOCC#CCOCCO",-0.9924000000000002,58.92,174.089208928,4,2,6,2,4,0,4,12,26,0,0,0,0,0,0,0,0,0,0,0,0.75
"A-4115","2-hydroxy-3,5-dinitrobenzoic acid",-1.057125752,"O=C([O-])c1cc([N+](=O)[O-])cc([N+](=O)[O-])c1[O-]","O=C([O-])c1cc([N+](=O)[O-])cc([N+](=O)[O-])c1[O-]",156.47891721077295,"O=C([O-])c1cc([N+](=O)[O-])cc([N+](=O)[O-])c1[O-]",-1.0599000000000003,149.47,225.98729756382002,9,0,3,0,7,0,9,16,18,0,1,1,0,0,0,0,0,1,0,0,0
"A-4116","2-phenylethan-1-ol",-0.7859239136,"OCCc1ccccc1","OCCc1ccccc1",16.92262866630373,"OCCc1ccccc1",1.2214,20.23,122.07316494,1,1,2,1,1,0,1,9,19,0,1,1,0,0,0,0,0,1,0,0,0.25
"A-4123","salicylonitrile",-0.7749656265,"N#Cc1ccccc1[O-]","N#Cc1ccccc1[O-]",34.51359835445216,"N#Cc1ccccc1[O-]",0.6318799999999998,46.849999999999994,118.02983732791,2,0,0,0,2,0,2,9,13,0,1,1,0,0,0,0,0,1,0,0,0
"A-4128","benzoic acid",-1.619929844,"O=C([O-])c1ccccc1","O=C([O-])c1ccccc1",17.928024548362515,"O=C([O-])c1ccccc1",0.05009999999999992,40.129999999999995,121.02950297991,2,0,1,0,2,0,2,9,14,0,1,1,0,0,0,0,0,1,0,0,0
"A-4130","6-hydroxy-1,4-dihydropyrimidin-4-one",-1.5871611222,"O=c1cc([O-])nc[nH]1","O=C1C=C([O-])N=CN1",-31.00465677333294,"O=c1cc([O-])nc[nH]1",-1.6538,64.52,111.02000091591,4,1,0,1,3,1,4,8,11,0,1,0,0,1,0,0,1,0,0,0,0
"A-4132","benzyl formate",-1.6731198029,"O=COCc1ccccc1","O=COCc1ccccc1",-7.395799664159449,"O=COCc1ccccc1",1.3596,26.3,136.052429496,2,0,3,0,2,0,2,10,18,0,1,1,0,0,0,0,0,1,0,0,0.125
"A-4133","1-ethoxybutane",-1.5499606595,"CCCCOCC","CCCCOCC",-0.31986806199586204,"CCCCOCC",1.823,9.23,102.104465068,1,0,4,0,1,0,1,7,21,0,0,0,0,0,0,0,0,0,0,0,1
"A-4136","1,1,3,3-tetramethylbutyl hydroperoxide",-2.2216330999,"CCOC(=O)C(=NNc1ccc([N+](=O)[O-])cc1)C(=O)c1nn2c(nc(=O)c3ccccc32)s1","CCOC(=O)C(=NNc1ccc([N+](=O)[O-])cc1)C(=O)C1=NN2C(=NC(=O)c3ccccc32)S1",76.18868707141543,"CCOC(=O)C(=NNc1ccc([N+](=O)[O-])cc1)C(=O)c1nn2c(nc(=O)c3ccccc23)s1",2.571600000000001,155.93,466.069553168,12,1,7,1,11,1,13,33,47,0,4,2,0,2,0,0,2,2,0,0,0.1
"A-4138","1-carbamimidamido-N-(2-methylphenyl)methanimidamide",-1.8422414993,"Cc1ccccc1[NH+]=C(N)[NH+]=C(N)N","Cc1ccccc1[NH+]=C(N)[NH+]=C(N)N",16.198844117075527,"Cc1ccccc1[NH+]=C(N)[NH+]=C(N)N",-3.624179999999999,106,193.13164832017998,5,8,1,5,0,0,5,14,29,0,1,1,0,0,0,0,0,1,0,0,0.1111111111111111
"A-4142","2-(5-ethenyl-5-methyloxolan-2-yl)propan-2-ol",-1.7997284582,"C=CC1(C)CCC(C(C)(C)O)O1","C=CC1(C)CCC(C(C)(C)O)O1",19.960477342771057,"C=CC1(C)CCC(C(C)(C)O)O1",1.8809999999999998,29.46,170.130679816,2,1,2,1,2,0,2,12,30,2,1,0,1,1,0,1,1,0,0,0,0.8
"A-4143","N-(2-methylphenyl)-3-oxobutanamide",-1.8501922609,"CC(=O)CC(=O)Nc1ccccc1C","CC(=O)CC(=O)Nc1ccccc1C",0.2570978705721281,"CC(=O)CC(=O)Nc1ccccc1C",1.91262,46.17,191.094628656,3,1,3,1,2,1,3,14,27,0,1,1,0,0,0,0,0,1,0,0,0.2727272727272727
"A-4144","[1-(carbamoylamino)-2-methylpropyl]urea",-1.8096943587,"CC(C)C(NC(N)=O)NC(N)=O","CC(C)C(NC(N)=O)NC(N)=O",-53.81523504065384,"CC(C)C(NC(=O)N)NC(=O)N",-0.694899999999999,110.23999999999998,174.111675688,6,6,3,4,2,4,6,12,26,0,0,0,0,0,0,0,0,0,0,0,0.6666666666666666
"A-4146","2,2'-(1,3-phenylene)dipropan-2-ol",-1.8635330455,"CC(C)(O)c1cccc(C(C)(C)O)c1","CC(C)(O)c1cccc(C(C)(C)O)c1",24.315958250748466,"CC(C)(O)c1cccc(C(C)(C)O)c1",2.1414,40.46,194.130679816,2,2,2,2,2,0,2,14,32,0,1,1,0,0,0,0,0,1,0,0,0.5
"A-4147","2-ethyl-6-methylaniline",-1.7061271762,"CCc1cccc(C)c1N","CCc1cccc(C)c1N",13.171278230632232,"CCc1cccc(C)c1N",2.13962,26.02,135.104799416,1,2,1,1,1,0,1,10,23,0,1,1,0,0,0,0,0,1,0,0,0.3333333333333333
"A-4151","N-(4-methoxyphenyl)-3-oxobutanamide",-1.9014771833,"COc1ccc(NC(=O)CC(C)=O)cc1","COc1ccc(NC(=O)CC(C)=O)cc1",5.8828387985167225,"COc1ccc(NC(=O)CC(=O)C)cc1",1.6127999999999998,55.4,207.089543276,4,1,4,1,3,1,4,15,28,0,1,1,0,0,0,0,0,1,0,0,0.2727272727272727
"A-4152","2-methyl-4-phenyl-1,3-dioxolane",-1.805450609,"CC1OCC(c2ccccc2)O1","CC1OCC(c2ccccc2)O1",18.271204306162687,"CC1OCC(c2ccccc2)O1",2.1205,18.46,164.083729624,2,0,1,0,2,0,2,12,24,2,2,1,1,1,0,1,1,1,0,0,0.4
"A-4153","3-methyl-5-propylcyclohex-2-en-1-one",-1.7725870938,"CCCC1CC(=O)C=C(C)C1","CCCC1CC(=O)C=C(C)C1",16.044780557092245,"CCCC1CC(=O)C=C(C)C1",2.711900000000001,17.07,152.120115132,1,0,2,0,1,0,1,11,27,1,1,0,0,1,0,0,0,0,0,1,0.7
"A-4154","4-cyanophenyl acetate",-1.7990172934,"CC(=O)Oc1ccc(C#N)cc1","CC(=O)Oc1ccc(C#N)cc1",22.475561262126845,"CC(=O)Oc1ccc(C#N)cc1",1.4835800000000001,50.09,161.047678464,3,0,1,0,3,0,3,12,19,0,1,1,0,0,0,0,0,1,0,0,0.1111111111111111
"A-4156","(2S)-2-(1,3-dioxoisoindol-2-yl)pentanedioic acid",-1.4463316859,"O=C([O-])CC[C@@H](C(=O)[O-])N1C(=O)c2ccccc2C1=O","O=C([O-])CC[C@@H](C(=O)[O-])N1C(=O)c2ccccc2C1=O",64.55337813223392,"O=C([O-])CC[C@@H](C(=O)[O-])N1C(=O)c2ccccc2C1=O",-2.0687999999999978,117.63999999999999,275.04408416782,7,0,5,0,6,2,7,20,29,1,2,1,0,1,0,0,1,1,0,0,0.23076923076923078
"A-4162","(6R)-3-methyl-6-(propan-2-yl)cyclohex-2-en-1-one",-1.7882436903,"CC1=CC(=O)[C@@H](C(C)C)CC1","CC1=CC(=O)[C@@H](C(C)C)CC1",20.70316165593643,"CC1=CC(=O)[C@@H](C(C)C)CC1",2.567800000000001,17.07,152.120115132,1,0,1,0,1,0,1,11,27,1,1,0,0,1,0,0,0,0,0,1,0.7
"A-4163","(2S,5R)-6-amino-3,3-dimethyl-7-oxo-4-thia-1-azabicyclo[3.2.0]heptane-2-carboxylic acid",-1.9440451079,"CC1(C)S[C@@H]2[C@H]([NH3+])C(=O)N2[C@H]1C(=O)[O-]","CC1(C)S[C@@H]2[C@H]([NH3+])C(=O)N2[C@H]1C(=O)[O-]",-56.038537535957836,"CC1(C)S[C@@H]2[C@H]([NH3+])C(=O)N2[C@H]1C(=O)[O-]",-2.5908999999999978,88.08000000000001,216.056863244,5,3,1,1,4,1,6,14,26,3,2,0,2,2,0,2,2,0,0,0,0.75
"A-4169","3-aminopyrazine-2-carboxylic acid",-1.7631595965,"Nc1nccnc1C(=O)[O-]","Nc1nccnc1C(=O)[O-]",121.2229752165172,"Nc1nccnc1C(=O)[O-]",-1.5777000000000005,91.93,138.03089994791,5,2,1,1,5,0,5,10,14,0,1,1,0,0,1,0,0,0,0,0,0
"A-4175","diallyl oxydiethane-2,1-diyl biscarbonate",-2.0652647201,"C=CCOC(=O)OCCOCCOC(=O)OCC=C","C=CCOC(=O)OCCOCCOC(=O)OCC=C",-72.0651289449922,"C=CCOC(=O)OCCOCCOC(=O)OCC=C",1.6814,80.29,274.10525291600004,7,0,10,0,7,0,7,19,37,0,0,0,0,0,0,0,0,0,0,0,0.5
"A-4176","oct-7-en-1-ol",-1.7442328638,"C=CCCCCCCO","C=CCCCCCCO",-0.9179380213977828,"C=CCCCCCCO",2.1152,20.23,128.120115132,1,1,6,1,1,0,1,9,25,0,0,0,0,0,0,0,0,0,0,0,0.75
"A-4179","3-[(2-isopropyl-5-methylcyclohexyl)oxy]propane-1,2-diol",-2.0063585886,"CC1CCC(C(C)C)C(OCC(O)CO)C1","CC1CCC(C(C)C)C(OCC(O)CO)C1",36.955100488850235,"CC1CCC(C(C)C)C(OCC(O)CO)C1",1.817,49.69,230.188194692,3,2,5,2,3,0,3,16,42,4,1,0,1,1,0,0,0,0,1,1,1
"A-4180","3-hydroxy-4-methoxybenzaldehyde",-1.8262432451,"COc1ccc(C=O)cc1O","COc1ccc(C=O)cc1O",24.395102456186333,"COc1ccc(C=O)cc1O",1.2132999999999998,46.53,152.047344116,3,1,2,1,3,0,3,11,19,0,1,1,0,0,0,0,0,1,0,0,0.125
"A-4181","4-methylbenzaldehyde",-1.7237015325,"Cc1ccc(C=O)cc1","Cc1ccc(C=O)cc1",14.902869800604167,"Cc1ccc(C=O)cc1",1.80752,17.07,120.057514876,1,0,1,0,1,0,1,9,17,0,1,1,0,0,0,0,0,1,0,0,0.125
"A-4182","4-amino-3-nitrophenol",-1.8337646505,"Nc1ccc(O)cc1[N+](=O)[O-]","Nc1ccc(O)cc1[N+](=O)[O-]",18.030749313184543,"Nc1ccc(O)cc1[N+](=O)[O-]",0.8825999999999998,89.39,154.037842052,5,3,1,2,4,0,5,11,17,0,1,1,0,0,0,0,0,1,0,0,0
"A-4184","2-nitrophenol",-1.8029142358,"O=[N+]([O-])c1ccccc1[O-]","O=[N+]([O-])c1ccccc1[O-]",63.40853829120917,"O=[N+]([O-])c1ccccc1[O-]",0.6683999999999999,66.2,138.01966656791,4,0,1,0,3,0,4,10,14,0,1,1,0,0,0,0,0,1,0,0,0
"A-4185","2,4,6-trimethylcyclohex-3-ene-1-carbaldehyde",-1.8440637235,"CC1=CC(C)C(C=O)C(C)C1","CC1=CC(C)C(C=O)C(C)C1",2.174977444586,"CC1=CC(C)C(C=O)C(C)C1",2.4237,17.07,152.120115132,1,0,1,0,1,0,1,11,27,3,1,0,0,1,0,0,0,0,0,1,0.7
"A-4186","5-pentyloxolan-2-one",-1.8552940397,"CCCCC[C@H]1CCC(=O)O1","CCCCC[C@H]1CCC(=O)O1",-7.227504882080307,"CCCCC[C@H]1CCC(=O)O1",2.2723000000000004,26.3,156.115029752,2,0,4,0,2,0,2,11,27,1,1,0,1,1,0,1,1,0,0,0,0.8888888888888888
"A-4188","1-(2,6-dimethylphenoxy)acetone",-1.9185447839,"CC(=O)COc1c(C)cccc1C","CC(=O)COc1c(C)cccc1C",30.666838831486007,"CC(=O)COc1c(C)cccc1C",2.2712400000000006,26.3,178.099379688,2,0,3,0,2,0,2,13,27,0,1,1,0,0,0,0,0,1,0,0,0.36363636363636365
"A-4189","2,5-dimethoxyaniline",-1.8588690394,"COc1ccc(OC)c(N)c1","COc1ccc(OC)c(N)c1",31.169931229512677,"COc1ccc(OC)c(N)c1",1.286,44.480000000000004,153.078978592,3,2,2,1,3,0,3,11,22,0,1,1,0,0,0,0,0,1,0,0,0.25
"A-4192","N-(2,4-dimethylphenyl)-3-oxobutanamide",-1.9900786823,"CC(=O)CC(=O)Nc1ccc(C)cc1C","CC(=O)CC(=O)Nc1ccc(C)cc1C",-1.1658446543996996,"CC(=O)CC(=O)Nc1ccc(C)cc1C",2.2210400000000003,46.17,205.11027872,3,1,3,1,2,1,3,15,30,0,1,1,0,0,0,0,0,1,0,0,0.3333333333333333
"A-4193","N-(2-methoxy-5-methylphenyl)acetamide",-1.931164755,"COc1ccc(C)cc1NC(C)=O","COc1ccc(C)cc1NC(C)=O",24.694021578564055,"COc1ccc(C)cc1NC(=O)C",1.9620199999999999,38.33,179.094628656,3,1,2,1,2,1,3,13,26,0,1,1,0,0,0,0,0,1,0,0,0.3
"A-4197","5-methyl-2-phenyl-2,3-dihydro-1H-pyrazol-3-one",-1.9250852844,"CC1=NN(c2ccccc2)C(=O)C1","CC1=NN(c2ccccc2)C(=O)C1",32.87619549579044,"CC1=NN(c2ccccc2)C(=O)C1",1.7992,32.67,174.07931294,3,0,1,0,2,1,3,13,23,0,2,1,0,1,0,0,1,1,0,0,0.2
"A-4198","heptanal",-1.7501244285,"CCCCCCC=O","CCCCCCC=O",-0.44514088283880016,"CCCCCCC=O",2.1557000000000004,17.07,114.104465068,1,0,5,0,1,0,1,8,22,0,0,0,0,0,0,0,0,0,0,0,0.8571428571428571
"A-4200","tert-butyl prop-2-enoate",-1.8045937153,"C=CC(=O)OC(C)(C)C","C=CC(=O)OC(C)(C)C",-5.248567032324898,"C=CC(=O)OC(C)(C)C",1.5141,26.3,128.083729624,2,0,1,0,2,0,2,9,21,0,0,0,0,0,0,0,0,0,0,0,0.5714285714285714
"A-4202","2-Hydroxy-N,N-dimethylpropanamide",1.6302351258,"CC(O)C(=O)N(C)C","CC(O)C(=O)N(C)C",11.038687823223285,"CC(O)C(=O)N(C)C",-0.5446000000000002,40.54,117.078978592,3,1,1,1,2,1,3,8,19,1,0,0,0,0,0,0,0,0,0,0,0.8