"ID","Name","Solubility","SMILES Canonical","Smiles (Optimized Geometry)","Energy","Smiles","SlogP","TPSA","ExactMW","NumLipinskiHBA","NumLipinskiHBD","NumRotatableBonds","NumHBD","NumHBA","NumAmideBonds","NumHeteroAtoms","NumHeavyAtoms","NumAtoms","NumStereocenters","NumRings","NumAromaticRings","NumSaturatedRings","NumAliphaticRings","NumAromaticHeterocycles","NumSaturatedHeterocycles","NumAliphaticHeterocycles","NumAromaticCarbocycles","NumSaturatedCarbocycles","NumAliphaticCarbocycles","FractionCSP3"
"B-2240","trichothecin",-2.9196,"CC=CC(=O)O[C@@H]1C[C@H]2O[C@@H]3C=C(C)C(=O)C[C@]3(C)[C@]1(C)[C@@]21CO1","CC=CC(=O)O[C@@H]1C[C@H]2O[C@@H]3C=C(C)C(=O)C[C@]3(C)[C@]1(C)[C@@]21CO1",30.595731749334004,"CC=CC(=O)O[C@@H]1C[C@H]2O[C@@H]3C=C(C)C(=O)C[C@]3(C)[C@]1(C)[C@]12CO1",2.3461000000000007,65.13,332.162373868,5,0,2,0,5,0,5,24,48,6,4,0,3,4,0,2,2,0,1,2,0.6842105263157895
"B-2241","amyl lactate",-1.2047,"CCCCCOC(=O)C(C)O","CCCCCOC(=O)C(C)O",14.21433495412101,"CCCCCOC(=O)C(C)O",1.1006,46.53,160.109944372,3,1,5,1,3,0,3,11,27,1,0,0,0,0,0,0,0,0,0,0,0.875
"B-2243","allyxycarb [bsi:iso]",-3.5932,"C=CCN(CC=C)c1c(C)cc(OC(=O)NC)cc1C","C=CCN(CC=C)c1c(C)cc(OC(=O)NC)cc1C",0.151425791915895,"C=CCN(CC=C)c1c(C)cc(OC(=O)NC)cc1C",3.2000400000000013,41.57,274.168127944,4,1,6,1,3,1,4,20,42,0,1,1,0,0,0,0,0,1,0,0,0.3125
"B-2245","(r)-(-)-carvone",-2.0608,"C=C(C)[C@@H]1CC=C(C)C(=O)C1","C=C(C)[C@@H]1CC=C(C)C(=O)C1",7.796674603451262,"C=C(C)[C@@H]1CC=C(C)C(=O)C1",2.4879000000000007,17.07,150.104465068,1,0,1,0,1,0,1,11,25,1,1,0,0,1,0,0,0,0,0,1,0.5
"B-2249","pentoxifylline",-0.558,"CC(=O)CCCCn1c(=O)c2c(ncn2C)n(C)c1=O","CC(=O)CCCCN1C(=O)c2c(ncn2C)N(C)C1=O",-131.7085420692621,"CC(=O)CCCCn1c(=O)c2c(ncn2C)n(C)c1=O",1.1914000000000002,75.51,278.13789043599996,7,0,5,0,5,3,7,20,38,0,2,1,0,1,1,0,1,0,0,0,0.5384615384615384
"B-2250","benzoic acid, 4-hydroxy-, pentyl ester",-3.8135,"CCCCCOC(=O)c1ccc(O)cc1","CCCCCOC(=O)c1ccc(O)cc1",10.237508235547526,"CCCCCOC(=O)c1ccc(O)cc1",2.739200000000001,46.53,208.109944372,3,1,5,1,3,0,3,15,31,0,1,1,0,0,0,0,0,1,0,0,0.4166666666666667
"B-2251","norgestrel",-5.2567,"C#C[C@]1(O)CC[C@H]2[C@@H]3CCC4=CC(=O)CC[C@@H]4[C@H]3CC[C@@]21CC","C#C[C@]1(O)CC[C@H]2[C@@H]3CCC4=CC(=O)CC[C@@H]4[C@H]3CC[C@@]21CC",57.993777645382096,"C#C[C@]1(O)CC[C@H]2[C@@H]3CCC4=CC(=O)CC[C@@H]4[C@H]3CC[C@]12CC",3.8826000000000036,37.3,312.208930136,2,1,1,1,2,0,2,23,51,6,4,0,3,4,0,0,0,0,3,4,0.7619047619047619
"B-2252","1,3-benzodioxole-5-acetaldehyde",-1.96,"O=CCc1ccc2c(c1)OCO2","O=CCc1ccc2c(c1)OCO2",25.499638080269854,"O=CCc1ccc2c(c1)OCO2",1.1566999999999998,35.53,164.047344116,3,0,2,0,3,0,3,12,20,0,2,1,0,1,0,0,1,1,0,0,0.2222222222222222
"B-2253","4-oxo-1,2,3,4-tetrahydro-<2>naphthoic acid",-2.1031,"O=C1CC(C(=O)[O-])Cc2ccccc21","O=C1CC(C(=O)[O-])Cc2ccccc21",8.437452425408566,"O=C1CC(C(=O)[O-])Cc2ccccc12",0.18159999999999965,57.2,189.05571772791,3,0,1,0,3,0,3,14,23,1,2,1,0,1,0,0,0,1,0,1,0.2727272727272727
"B-2255","l-serine, n-l-seryl-",-0.5847,"[NH3+]C(CO)C(=O)NC(CO)C(=O)[O-]","[NH3+]C(CO)C(=O)NC(CO)C(=O)[O-]",-100.39581859634936,"[NH3+]C(CO)C(=O)NC(CO)C(=O)[O-]",-5.183799999999996,137.33,192.074621484,7,6,5,4,5,1,7,13,25,2,0,0,0,0,0,0,0,0,0,0,0.6666666666666666
"B-2256","1,2-cyclopentanedione, dioxime",-1.9937,"O=NC1=C(N[O-])CCC1","O=NC1=C(N[O-])CCC1",6.4834984150772055,"O=NC1=C(N[O-])CCC1",1.2357,64.52,127.05130104391,4,1,2,1,4,0,4,9,16,0,1,0,0,1,0,0,0,0,0,1,0.6
"B-2257","2-pyrrolidinone, 5-methyl-1-phenyl-",-0.8457,"CC1CCC(=O)N1c1ccccc1","CC1CCC(=O)N1c1ccccc1",12.179613180843376,"CC1CCC(=O)N1c1ccccc1",2.2019,20.310000000000002,175.099714036,2,0,1,0,1,1,2,13,26,1,2,1,1,1,0,1,1,1,0,0,0.36363636363636365
"B-2259","1,2-benzenedicarboxylic acid, 3-nitro-, 2-methyl",-2.0853,"COC(=O)c1c(C(=O)[O-])cccc1[N+](=O)[O-]","COC(=O)c1c(C(=O)[O-])cccc1[N+](=O)[O-]",-12.886696097926553,"COC(=O)c1c(C(=O)[O-])cccc1[N+](=O)[O-]",-0.2551000000000002,109.57000000000002,224.02006049191002,7,0,3,0,6,0,7,16,22,0,1,1,0,0,0,0,0,1,0,0,0.1111111111111111
"B-2260","phthalic acid, 3-nitro-, 2-propyl ester",-2.3466,"CC(C)OC(=O)c1cccc([N+](=O)[O-])c1C(=O)[O-]","CC(C)OC(=O)c1cccc([N+](=O)[O-])c1C(=O)[O-]",-6.724569393450764,"CC(C)OC(=O)c1cccc([N+](=O)[O-])c1C(=O)[O-]",0.5234999999999999,109.57,252.05136061991,7,0,4,0,6,0,7,18,28,0,1,1,0,0,0,0,0,1,0,0,0.2727272727272727
"B-2261","phthalic acid, 3-nitro-, 2-isopropyl ester",-2.4897,"CC(C)OC(=O)c1c(C(=O)[O-])cccc1[N+](=O)[O-]","CC(C)OC(=O)c1c(C(=O)[O-])cccc1[N+](=O)[O-]",-10.400141468137107,"CC(C)OC(=O)c1c(C(=O)[O-])cccc1[N+](=O)[O-]",0.5234999999999996,109.57000000000002,252.05136061991,7,0,4,0,6,0,7,18,28,0,1,1,0,0,0,0,0,1,0,0,0.2727272727272727
"B-2262","phthalic acid, 3-nitro-, 2-isobutyl ester",-3.0467,"CC(C)(C)OC(=O)c1cccc([N+](=O)[O-])c1C(=O)[O-]","CC(C)(C)OC(=O)c1cccc([N+](=O)[O-])c1C(=O)[O-]",-0.632844054596589,"CC(C)(C)OC(=O)c1cccc([N+](=O)[O-])c1C(=O)[O-]",0.9135999999999997,109.57,266.06701068391004,7,0,3,0,6,0,7,19,31,0,1,1,0,0,0,0,0,1,0,0,0.3333333333333333
"B-2263","phthalic acid, 3-nitro-, isopentyl ester",-3.0689,"CC(C)CCOC(=O)c1cccc([N+](=O)[O-])c1C(=O)[O-]","CC(C)CCOC(=O)c1cccc([N+](=O)[O-])c1C(=O)[O-]",-3.9435858348297153,"CC(C)CCOC(=O)c1cccc([N+](=O)[O-])c1C(=O)[O-]",1.1612,109.57,280.08266074791,7,0,6,0,6,0,7,20,34,0,1,1,0,0,0,0,0,1,0,0,0.38461538461538464
"B-2264","phosphinic acid, mesityl-",-2.7896,"Cc1cc(C)c([PH](=O)[O-])c(C)c1","Cc1cc(C)c([PH](=O)[O-])c(C)c1",23.330999207249818,"Cc1cc(C)c(P(=O)[O-])c(C)c1",1.0721599999999998,40.129999999999995,183.05803983391,2,0,1,0,2,0,3,12,24,1,1,1,0,0,0,0,0,1,0,0,0.3333333333333333
"B-2266","1,3-propanediol, 2-(2-propenyloxy)-",0.481,"C=CCOC(CO)CO","C=CCOC(CO)CO",16.325862397858966,"C=CCOC(CO)CO",-0.4578000000000001,49.69,132.078644244,3,2,5,2,3,0,3,9,21,0,0,0,0,0,0,0,0,0,0,0,0.6666666666666666
"B-2267","guanidine, n-methyl-n,n'-dinitro-",-0.6104,"CN(C(N)=N[N+](=O)[O-])[N+](=O)[O-]","CN(C(N)=N[N+](=O)[O-])[N+](=O)[O-]",-91.90258374577073,"CN(C(=N[N+](=O)[O-])N)[N+](=O)[O-]",-1.3836999999999997,127.9,163.03415364,9,2,2,1,4,0,9,11,16,0,0,0,0,0,0,0,0,0,0,0,0.5
"B-2268","phthalic acid, 3-nitro-, 2-butyl ester",-2.7193,"CCC(C)OC(=O)c1cccc([N+](=O)[O-])c1C(=O)[O-]","CCC(C)OC(=O)c1cccc([N+](=O)[O-])c1C(=O)[O-]",-3.3531176235896325,"CCC(C)OC(=O)c1cccc([N+](=O)[O-])c1C(=O)[O-]",0.9135999999999997,109.57,266.06701068391004,7,0,5,0,6,0,7,19,31,1,1,1,0,0,0,0,0,1,0,0,0.3333333333333333
"B-2270","1,2-dimethylcyclohexane (trans)",-4.3341,"C[C@H]1CCCC[C@@H]1C","C[C@H]1CCCC[C@@H]1C",11.419681938650006,"C[C@H]1CCCC[C@@H]1C",2.832600000000001,0,112.12520051199999,0,0,0,0,0,0,0,8,24,2,1,0,1,1,0,0,0,0,1,1,1
"B-2272","serine",-0.3861,"[NH3+][C@@H](CO)C(=O)[O-]","[NH3+][C@@H](CO)C(=O)[O-]",-97.319868690698,"[NH3+][C@@H](CO)C(=O)[O-]",-3.6608999999999994,88,105.042593084,4,4,2,2,3,0,4,7,14,1,0,0,0,0,0,0,0,0,0,0,0.6666666666666666
"B-2273","glutamic acid",-0.9916,"[NH3+]C(CCC(=O)[O-])C(=O)[O-]","[NH3+]C(CCC(=O)[O-])C(=O)[O-]",-99.35112116981654,"[NH3+]C(CCC(=O)[O-])C(=O)[O-]",-4.123099999999998,107.9,146.04588131591,5,3,4,1,4,0,5,10,18,1,0,0,0,0,0,0,0,0,0,0,0.6
"B-2275","acetamide, n,n'-(phenylmethylene)bis-",-1.3144,"CC(=O)NC(NC(C)=O)c1ccccc1","CC(=O)NC(NC(C)=O)c1ccccc1",-43.978253878324594,"CC(=O)NC(NC(=O)C)c1ccccc1",0.9573999999999998,58.2,206.105527688,4,2,3,2,2,2,4,15,29,0,1,1,0,0,0,0,0,1,0,0,0.2727272727272727
"B-2277","azodrin",0.6514,"CNC(=O)C=C(C)OP(=O)(OC)OC","CNC(=O)C=C(C)OP(=O)(OC)OC",-49.3307474182642,"CNC(=O)C=C(C)OP(=O)(OC)OC",1.0536999999999999,73.86,223.060959178,6,1,5,1,5,1,7,14,28,0,0,0,0,0,0,0,0,0,0,0,0.5714285714285714
"B-2279","d-galactose, (aminocarbonyl)hydrazone",-0.4257,"NC(=O)NN=CC(O)C(O)C(O)C(O)CO","NC(=O)NN=CC(O)C(O)C(O)C(O)CO",49.973772346914465,"NC(=O)NN=CC(O)C(O)C(O)C(O)CO",-3.9236,168.63,237.0960852,9,8,6,7,7,2,9,16,31,4,0,0,0,0,0,0,0,0,0,0,0.7142857142857143
"B-2280","nicotinic acid, butyl ester",-1.8367,"CCCCOC(=O)c1cccnc1","CCCCOC(=O)c1cccnc1",4.615990336715636,"CCCCOC(=O)c1cccnc1",2.0385,39.19,179.094628656,3,0,4,0,3,0,3,13,26,0,1,1,0,0,1,0,0,0,0,0,0.4
"B-2281","1,3-propanediol, monobenzoate",-1.2558,"O=C(OCCCO)c1ccccc1","O=C(OCCCO)c1ccccc1",3.9454526720725,"O=C(OCCCO)c1ccccc1",1.2258,46.53,180.078644244,3,1,4,1,3,0,3,13,25,0,1,1,0,0,0,0,0,1,0,0,0.3
"B-2283","dioxacarb",-1.5706,"CNC(=O)Oc1ccccc1C1OCCO1","CNC(=O)Oc1ccccc1C1OCCO1",1.0490529453417787,"CNC(=O)Oc1ccccc1C1OCCO1",1.4502,56.790000000000006,223.084457896,5,1,2,1,4,1,5,16,29,0,2,1,1,1,0,1,1,1,0,0,0.36363636363636365
"B-2289","phosphinic acid, dibutyl-, ethyl ester",-1.2005,"CCCCP(=O)(CCCC)OCC","CCCCP(=O)(CCCC)OCC",-10.882264153882113,"CCCCP(=O)(CCCC)OCC",3.901200000000003,26.3,206.14356660599998,2,0,8,0,2,0,3,13,36,0,0,0,0,0,0,0,0,0,0,0,1
"B-2292","acetamide, n-acetyl-n-(4-ethoxyphenyl)-",-1.947,"CCOc1ccc(N(C(C)=O)C(C)=O)cc1","CCOc1ccc(N(C(C)=O)C(C)=O)cc1",16.36962339538267,"CCOc1ccc(N(C(=O)C)C(=O)C)cc1",1.9847,46.61,221.10519334,4,0,3,0,3,2,4,16,31,0,1,1,0,0,0,0,0,1,0,0,0.3333333333333333
"B-2293","phosphoric acid, dibutyl ethyl ester",-1.8456,"CCCCOP(=O)(OCC)OCCCC","CCCCOP(=O)(OCC)OCCCC",-84.67578067092694,"CCCCOP(=O)(OCC)OCCCC",3.764400000000003,44.760000000000005,238.13339584599998,4,0,10,0,4,0,5,15,38,0,0,0,0,0,0,0,0,0,0,0,1
"B-2294","phosphoric acid, dibutyl methyl ester",-1.4995,"CCCCOP(=O)(OC)OCCCC","CCCCOP(=O)(OC)OCCCC",-84.36367871758051,"CCCCOP(=O)(OC)OCCCC",3.3743000000000025,44.760000000000005,224.117745782,4,0,9,0,4,0,5,14,35,0,0,0,0,0,0,0,0,0,0,0,1
"B-2295","5-quinolinecarboxylic acid",-2.6774,"O=C([O-])c1cccc2ncccc12","O=C([O-])c1cccc2ncccc12",31.168123033092225,"O=C([O-])c1cccc2ncccc12",0.5982999999999998,53.019999999999996,172.04040201191,3,0,1,0,3,0,3,13,19,0,2,2,0,0,1,0,0,1,0,0,0
"B-2297","2,2,3-trimethyl-3-pentanol",-1.2708,"CCC(C)(O)C(C)(C)C","CCC(C)(O)C(C)(C)C",13.733621784856368,"CCC(C)(O)C(C)(C)C",2.1935000000000002,20.23,130.135765196,1,1,1,1,1,0,1,9,27,1,0,0,0,0,0,0,0,0,0,0,1
"B-2298","butanediamide, n,n,n',n'-tetramethyl-",0.5035,"CN(C)C(=O)CCC(=O)N(C)C","CN(C)C(=O)CCC(=O)N(C)C",-49.98181291107746,"CN(C)C(=O)CCC(=O)N(C)C",-0.05699999999999994,40.620000000000005,172.121177752,4,0,3,0,2,2,4,12,28,0,0,0,0,0,0,0,0,0,0,0,0.75
"B-2300","2,5-piperazinedione, 1,4-bis(hydroxymethyl)-",-0.4168,"O=C1CN(CO)C(=O)CN1CO","O=C1CN(CO)C(=O)CN1CO",2.3134550655386388,"O=C1CN(CO)C(=O)CN1CO",-2.4431999999999987,81.08000000000001,174.0640568,6,2,2,2,4,2,6,12,22,0,1,0,1,1,0,1,1,0,0,0,0.6666666666666666
"B-2301","barbituric acid, 5-ipr",-1.4556,"CC(C)C1C(=O)NC(=O)NC1=O","CC(C)C1C(=O)NC(=O)NC1=O",-53.96329628785875,"CC(C)C1C(=O)NC(=O)NC1=O",-0.3754000000000001,75.27000000000001,170.06914218,5,2,1,2,3,4,5,12,22,0,1,0,1,1,0,1,1,0,0,0,0.5714285714285714
"B-2302","phosphonic acid, 4-morpholinyl-, diphenyl ester",-2.1425,"O=P(Oc1ccccc1)(Oc1ccccc1)N1CCOCC1","O=P(Oc1ccccc1)(Oc1ccccc1)N1CCOCC1",13.44314655435559,"O=P(Oc1ccccc1)(Oc1ccccc1)N1CCOCC1",3.5847000000000024,48,319.097344686,5,0,5,0,4,0,6,22,40,0,3,2,1,1,0,1,1,2,0,0,0.25
"B-2303","n-methyl-n-nitrosoacetamide",-0.7684,"CC(=O)N(C)N=O","CC(=O)N(C)N=O",-7.182816692921798,"CC(=O)N(C)N=O",0.1461,49.74,102.042927432,4,0,1,0,3,1,4,7,13,0,0,0,0,0,0,0,0,0,0,0,0.6666666666666666
"B-2306","benzenamine, n-ethyl-2,4,6-trinitro-",-3.4085,"CCNc1c([N+](=O)[O-])cc([N+](=O)[O-])cc1[N+](=O)[O-]","CCNc1c([N+](=O)[O-])cc([N+](=O)[O-])cc1[N+](=O)[O-]",54.98929585623151,"CCNc1c([N+](=O)[O-])cc([N+](=O)[O-])cc1[N+](=O)[O-]",1.8429999999999997,141.45000000000002,256.044383976,10,1,5,1,7,0,10,18,26,0,1,1,0,0,0,0,0,1,0,0,0.25
"B-2307","4-benzothiazolol, 2-amino-",-1.9196,"Nc1nc2c(O)cccc2s1","Nc1nc2c(O)cccc2s1",18.79972097217344,"Nc1nc2c(O)cccc2s1",1.5840999999999996,59.14,166.020083812,3,3,0,2,4,0,4,11,17,0,2,2,0,0,1,0,0,1,0,0,0
"B-2308","3-furancarboxylic acid, tetrahydro-3-methyl-2-ox",0.8412,"CC1(C(=O)[O-])CCOC1=O","CC1(C(=O)[O-])CCOC1=O",-26.836467711381296,"CC1(C(=O)[O-])CCOC1=O",-1.3105000000000007,66.43,143.03498228391,4,0,1,0,4,0,4,10,17,1,1,0,1,1,0,1,1,0,0,0,0.6666666666666666
"B-2309","1,2-anthracenedicarboxylic acid, 9,10-dihydro-9,",-2.8141,"O=C([O-])c1ccc2c(c1C(=O)[O-])C(=O)c1ccccc1C2=O","O=C([O-])c1ccc2c(c1C(=O)[O-])C(=O)c1ccccc1C2=O",111.5362229501689,"O=C([O-])c1ccc2c(c1C(=O)[O-])C(=O)c1ccccc1C2=O",-0.8110000000000004,114.39999999999998,294.01753507182,6,0,2,0,6,0,6,22,28,0,3,2,0,1,0,0,0,2,0,1,0
"B-2310","cytidine, 2',3'-dideoxy-",-0.4416,"Nc1ccn([C@H]2CC[C@@H](CO)O2)c(=O)n1","NC1=NC(=O)N([C@H]2CC[C@@H](CO)O2)C=C1",-55.080083372370446,"Nc1nc(=O)n([C@H]2CC[C@@H](CO)O2)cc1",-0.2097000000000006,88.14999999999999,211.095691276,6,3,2,2,4,2,6,15,28,2,2,0,1,2,0,1,2,0,0,0,0.5555555555555556
"B-2311","1,4-dioxane, 2,5-dimethoxy-2,5-dimethyl-",-1.246,"COC1(C)COC(C)(OC)CO1","COC1(C)COC(C)(OC)CO1",60.54924301573883,"COC1(C)COC(C)(OC)CO1",0.7584,36.92,176.104858992,4,0,2,0,4,0,4,12,28,2,1,0,1,1,0,1,1,0,0,0,1
"B-2312","acetic acid, [2-methoxy-4-(1-propenyl)phenoxy]-",-1.5826,"CC=Cc1ccc(OCC(=O)[O-])c(OC)c1","CC=Cc1ccc(OCC(=O)[O-])c(OC)c1",86.20865555635989,"CC=Cc1ccc(OCC(=O)[O-])c(OC)c1",0.8569999999999998,58.59,221.08193247591,4,0,5,0,4,0,4,16,29,0,1,1,0,0,0,0,0,1,0,0,0.25
"B-2313","azacyclotetradecan-2-one",-2.626,"O=C1CCCCCCCCCCCCN1","O=C1CCCCCCCCCCCCN1",2.046136878587899,"O=C1CCCCCCCCCCCCN1",3.407300000000002,29.1,211.19361442,2,1,0,1,1,1,2,15,40,0,1,0,1,1,0,1,1,0,0,0,0.9230769230769231
"B-2316","8-quinazolinol",-2.0361,"Oc1cccc2cncnc12","Oc1cccc2cncnc12",-3.7577859461198173,"Oc1cccc2cncnc12",1.3353999999999997,46.010000000000005,146.048012812,3,1,0,1,3,0,3,11,17,0,2,2,0,0,1,0,0,1,0,0,0
"B-2317","butane-1-thiosulfinic acid s-butyl ester",-2.2886,"CCCCSS(=O)CCCC","CCCCSS(=O)CCCC",-5.493577620023392,"CCCCSS(=O)CCCC",2.983500000000001,17.07,194.079907196,1,0,7,0,2,0,3,11,29,1,0,0,0,0,0,0,0,0,0,0,1
"B-2318","phenylethanolamine",-0.4764,"[NH3+]CC(O)c1ccccc1","[NH3+]CC(O)c1ccccc1",0.8311068426372836,"[NH3+]CC(O)c1ccccc1",-0.03810000000000002,47.870000000000005,138.09134042409,2,4,2,2,1,0,2,10,22,1,1,1,0,0,0,0,0,1,0,0,0.25
"B-2320","2-furancarboxamide, n-hydroxy-n-phenyl-",-3.194,"O=C(c1ccco1)N(O)c1ccccc1","O=C(c1ccco1)N(O)c1ccccc1",43.104095572533765,"O=C(c1ccco1)N(O)c1ccccc1",2.3156,53.68000000000001,203.058243148,4,1,2,1,3,1,4,15,24,0,2,2,0,0,1,0,0,1,0,0,0
"B-2323","nicotinic acid, propyl ester",-1.2403,"CCCOC(=O)c1cccnc1","CCCOC(=O)c1cccnc1",4.767573123404552,"CCCOC(=O)c1cccnc1",1.6483999999999999,39.19,165.078978592,3,0,3,0,3,0,3,12,23,0,1,1,0,0,1,0,0,0,0,0,0.3333333333333333
"B-2324","ronidazole",-1.8433,"Cn1c([N+](=O)[O-])cnc1COC(N)=O","Cn1c([N+](=O)[O-])cnc1COC(N)=O",-26.175319243851565,"Cn1c([N+](=O)[O-])cnc1COC(=O)N",-0.07640000000000013,113.28,200.054554736,8,2,3,1,6,1,8,14,22,0,1,1,0,0,1,0,0,0,0,0,0.3333333333333333
"B-2325","dl-norleucine, n-acetyl-",-0.6823,"CCCCC(NC(C)=O)C(=O)[O-]","CCCCC(NC(C)=O)C(=O)[O-]",30.599995076054768,"CCCCC(NC(=O)C)C(=O)[O-]",-0.5688,69.23,172.09791688791,4,1,5,1,3,1,4,12,26,1,0,0,0,0,0,0,0,0,0,0,0.75
"B-2327","crotoxyphos",-2.4973,"COP(=O)(OC)OC(C)=CC(=O)OC(C)c1ccccc1","COP(=O)(OC)OC(C)=CC(=O)OC(C)c1ccccc1",-38.27569137557817,"COP(=O)(OC)OC(=CC(=O)OC(C)c1ccccc1)C",3.6121000000000025,71.06,314.09192495800005,6,0,7,0,6,0,7,21,40,1,1,1,0,0,0,0,0,1,0,0,0.35714285714285715
"B-2337","mevinphos",0.4276,"COC(=O)C=C(C)OP(=O)(OC)OC","COC(=O)C=C(C)OP(=O)(OC)OC",-45.30757768778936,"COC(=O)C=C(C)OP(=O)(OC)OC",1.4807,71.06,224.044974766,6,0,5,0,6,0,7,14,27,0,0,0,0,0,0,0,0,0,0,0,0.5714285714285714
"B-2342","ethanol, 2-(octyloxy)-",-2.125,"CCCCCCCCOCCO","CCCCCCCCOCCO",9.607795524754454,"CCCCCCCCOCCO",2.355800000000001,29.46,174.161979944,2,1,9,1,2,0,2,12,34,0,0,0,0,0,0,0,0,0,0,0,1
"B-2344","1-butanol, 2-ethyl-, acetate",-1.3528,"CCC(CC)COC(C)=O","CCC(CC)COC(C)=O",-7.42171033087857,"CCC(CC)COC(=O)C",1.9857,26.3,144.115029752,2,0,4,0,2,0,2,10,26,0,0,0,0,0,0,0,0,0,0,0,0.875
"B-2347","1,1-cyclopropanedicarboxylic acid, 2-methyl-",0.8412,"CC1CC1(C(=O)[O-])C(=O)[O-]","CC1CC1(C(=O)[O-])C(=O)[O-]",37.5850695654935,"CC1CC1(C(=O)[O-])C(=O)[O-]",-2.4875999999999987,80.25999999999999,142.02770583182001,4,0,2,0,4,0,4,10,16,1,1,0,1,1,0,0,0,0,1,1,0.6666666666666666
"B-2348","butanedioic acid, 2,2-diphenyl-",-2.4318,"O=C([O-])CC(C(=O)[O-])(c1ccccc1)c1ccccc1","O=C([O-])CC(C(=O)[O-])(c1ccccc1)c1ccccc1",136.7188010321434,"O=C([O-])CC(C(=O)[O-])(c1ccccc1)c1ccccc1",-0.1373999999999993,80.25999999999999,268.07465602382,4,0,5,0,4,0,4,20,32,0,2,2,0,0,0,0,0,2,0,0,0.125
"B-2351","methamidophos",0.8504,"COP(N)(=O)SC","COP(N)(=O)SC",-41.925442544503184,"COP(=O)(N)SC",1.0626,52.32,141.001336126,3,2,2,1,3,0,5,7,15,1,0,0,0,0,0,0,0,0,0,0,1
"B-2353","n-isobutylmorpholine",-0.7089,"CC(C)C[NH+]1CCOCC1","CC(C)C[NH+]1CCOCC1",53.92445795935616,"CC(C)C[NH+]1CCOCC1",-0.4424999999999988,13.670000000000002,144.13829061609,2,1,2,1,1,0,2,10,28,0,1,0,1,1,0,1,1,0,0,0,1
"B-2355","6-quinolinecarboxylic acid",-0.0456,"O=C([O-])c1ccc2ncccc2c1","O=C([O-])c1ccc2ncccc2c1",30.703326537904797,"O=C([O-])c1ccc2ncccc2c1",0.5982999999999999,53.019999999999996,172.04040201191,3,0,1,0,3,0,3,13,19,0,2,2,0,0,1,0,0,1,0,0,0
"B-2356","3-pyridinecarboxamide, n-cyclohexyl-",-2.319,"O=C(NC1CCCCC1)c1cccnc1","O=C(NC1CCCCC1)c1cccnc1",12.556711064752726,"O=C(NC1CCCCC1)c1cccnc1",2.1441,41.99,204.126263132,3,1,2,1,2,1,3,15,31,0,2,1,1,1,1,0,0,0,1,1,0.5
"B-2357","3-hydroxycamphor",-0.9249,"CC12CCC(C(O)C1=O)C2(C)C","CC12CCC(C(O)C1=O)C2(C)C",50.82860332421085,"CC12CCC(C(O)C1=O)C2(C)C",1.3725,37.3,168.115029752,2,1,0,1,2,0,2,12,28,3,2,0,2,2,0,0,0,0,2,2,0.9
"B-2359","3-octyloxy-propane-1,2-diol",-1.9208,"CCCCCCCCOCC(O)CO","CCCCCCCCOCC(O)CO",20.15056437881724,"CCCCCCCCOCC(O)CO",1.7167,49.69,204.172544628,3,2,10,2,3,0,3,14,38,1,0,0,0,0,0,0,0,0,0,0,1
"B-2364","phosphoric acid, ethyl dimethyl ester",0.5112,"CCOP(=O)(OC)OC","CCOP(=O)(OC)OC",-84.73420122259621,"CCOP(=O)(OC)OC",1.4238,44.760000000000005,154.039495462,4,0,4,0,4,0,5,9,20,0,0,0,0,0,0,0,0,0,0,0,1
"B-2365","terbufos sulfoxide",-2.4421,"CCOP(=S)(OCC)SCS(=O)C(C)(C)C","CCOP(=S)(OCC)SCS(=O)C(C)(C)C",-85.55807240530187,"CCOP(=S)(OCC)SCS(=O)C(C)(C)C",3.5218000000000025,35.53,304.039044162,3,0,7,0,5,0,7,16,37,1,0,0,0,0,0,0,0,0,0,0,1
"B-2366","nitrothal-isopropyl",-5.0389,"CC(C)OC(=O)c1cc(C(=O)OC(C)C)cc([N+](=O)[O-])c1","CC(C)OC(=O)c1cc(C(=O)OC(C)C)cc([N+](=O)[O-])c1",4.991215141583555,"CC(C)OC(=O)c1cc(C(=O)OC(C)C)cc([N+](=O)[O-])c1",2.725200000000001,95.74000000000001,295.105587264,7,0,5,0,6,0,7,21,38,0,1,1,0,0,0,0,0,1,0,0,0.42857142857142855
"B-2372","landrin",-1.9851,"CNC(=O)Oc1cc(C)cc(C)c1C","CNC(=O)Oc1cc(C)cc(C)c1C",5.8523565405680475,"CNC(=O)Oc1cc(C)cc(C)c1C",2.3300600000000005,38.33,193.11027872,3,1,1,1,2,1,3,14,29,0,1,1,0,0,0,0,0,1,0,0,0.36363636363636365
"B-2374","ancymidol",-2.5959,"COc1ccc(C(O)(c2cncnc2)C2CC2)cc1","COc1ccc(C(O)(c2cncnc2)C2CC2)cc1",-12.907971032541445,"COc1ccc(C(O)(c2cncnc2)C2CC2)cc1",2.1311,55.24,256.121177752,4,1,4,1,4,0,4,19,35,1,3,2,1,1,1,0,0,1,1,1,0.3333333333333333
"B-2375","o1,o3-diisopropyl-glycerol",0.0549,"CC(C)OCC(O)COC(C)C","CC(C)OCC(O)COC(C)C",26.378062585709102,"CC(C)OCC(O)COC(C)C",1.1972999999999998,38.69,176.1412445,3,1,6,1,3,0,3,12,32,0,0,0,0,0,0,0,0,0,0,0,1
"B-2376","benzoic acid, 5-acetyl-2-hydroxy-",-2.2304,"CC(=O)c1ccc(O)c(C(=O)[O-])c1","CC(=O)c1ccc(O)c(C(=O)[O-])c1",17.863469537407727,"CC(=O)c1ccc(O)c(C(=O)[O-])c1",-0.041700000000000015,77.42999999999999,179.03498228391,4,1,2,1,4,0,4,13,20,0,1,1,0,0,0,0,0,1,0,0,0.1111111111111111
"B-2378","periplocin",-1.94,"COC1C(O)[C@H](O[C@H]2CC[C@]3(C)C4CC[C@]5(C)[C@@H](C6=CC(=O)OC6)CC[C@]5(O)C4CC[C@]3(O)C2)OC(CO[C@@H]2C(O)C[C@@H](O)OC2C)[C@H]1O","COC1C(O)[C@H](O[C@H]2CC[C@]3(C)C4CC[C@]5(C)[C@@H](C6=CC(=O)OC6)CC[C@]5(O)C4CC[C@]3(O)C2)OC(CO[C@@H]2C(O)C[C@@H](O)OC2C)[C@H]1O",160.36025549851936,"COC1C(O)[C@H](O[C@H]2CC[C@]3(C)C4CC[C@]5(C)[C@@H](C6=CC(=O)OC6)CC[C@]5(O)C4CC[C@]3(O)C2)OC(CO[C@@H]2C(O)C[C@@H](O)OC2C)[C@H]1O",1.0785000000000025,193.82999999999998,696.3720918519999,13,6,7,6,13,0,13,49,105,17,7,0,6,7,0,2,3,0,4,4,0.9166666666666666