"ID","Name","Solubility","SMILES Canonical","Smiles (Optimized Geometry)","Energy","Smiles","SlogP","TPSA","ExactMW","NumLipinskiHBA","NumLipinskiHBD","NumRotatableBonds","NumHBD","NumHBA","NumAmideBonds","NumHeteroAtoms","NumHeavyAtoms","NumAtoms","NumStereocenters","NumRings","NumAromaticRings","NumSaturatedRings","NumAliphaticRings","NumAromaticHeterocycles","NumSaturatedHeterocycles","NumAliphaticHeterocycles","NumAromaticCarbocycles","NumSaturatedCarbocycles","NumAliphaticCarbocycles","FractionCSP3"
"A-620","3-methyl-5-(prop-2-enoyloxy)pentyl prop-2-enoate",-2.6214335505,"C=CC(=O)OCCC(C)CCOC(=O)C=C","C=CC(=O)OCCC(C)CCOC(=O)C=C",-15.215451514045547,"C=CC(=O)OCCC(C)CCOC(=O)C=C",1.8611,52.6,226.120509056,4,0,8,0,4,0,4,16,34,0,0,0,0,0,0,0,0,0,0,0,0.5
"A-624","decahydronaphthalen-2-yl acetate",-3.5605044152,"CC(=O)OC1CCC2CCCCC2C1","CC(=O)OC1CCC2CCCCC2C1",8.081951901301803,"CC(=O)OC1CCC2CCCCC2C1",2.908400000000001,26.3,196.14632988,2,0,1,0,2,0,2,14,34,3,2,0,2,2,0,0,0,0,2,2,0.9166666666666666
"A-625","2-hexadecan-2-yl-4,6-dimethylphenol",-7.3357073227,"CCCCCCCCCCCCCCC(C)c1cc(C)cc(C)c1O","CCCCCCCCCCCCCCC(C)c1cc(C)cc(C)c1O",11.706861424800973,"CCCCCCCCCCCCCCC(C)c1cc(C)cc(C)c1O",8.203740000000005,20.23,346.32356596399995,1,1,14,1,1,0,1,25,67,1,1,1,0,0,0,0,0,1,0,0,0.75
"A-628","2-[(6-oxobenzo[c][2,1]benzoxaphosphinin-6-yl)methyl]butanedioic acid",-2.8135095056,"O=C([O-])CC(CP1(=O)Oc2ccccc2-c2ccccc21)C(=O)[O-]","O=C([O-])CC(CP1(=O)Oc2ccccc2-c2ccccc21)C(=O)[O-]",67.797466256727,"O=C([O-])CC(CP1(=O)Oc2ccccc2c2ccccc12)C(=O)[O-]",0.15549999999999997,106.56,344.04607192581994,6,0,5,0,6,0,7,24,37,2,3,2,0,1,0,0,1,2,0,0,0.17647058823529413
"A-640","(4E)-5,9-dimethyldeca-4,8-dienal",-3.5383035446,"CC(C)=CCCC(C)=CCCC=O","CC(C)=CCCC(C)=CCCC=O",5.285783535461979,"CC(=CCCC(=CCCC=O)C)C",3.6582000000000026,17.07,180.15141526,1,0,6,0,1,0,1,13,33,0,0,0,0,0,0,0,0,0,0,0,0.5833333333333334
"A-645","phenyl methacrylate",-2.4948513605,"C=C(C)C(=O)Oc1ccccc1","C=C(C)C(=O)Oc1ccccc1",19.11889505281148,"C=C(C)C(=O)Oc1ccccc1",2.1681,26.3,162.06807956,2,0,2,0,2,0,2,12,22,0,1,1,0,0,0,0,0,1,0,0,0.1
"A-647","2,6,6-trimethylcyclohexa-1,3-diene-1-carbaldehyde",-2.4650077569,"CC1=C(C=O)C(C)(C)CC=C1","CC1=C(C=O)C(C)(C)CC=C1",14.406270376783032,"CC1=C(C=O)C(C)(C)CC=C1",2.4879000000000007,17.07,150.104465068,1,0,1,0,1,0,1,11,25,0,1,0,0,1,0,0,0,0,0,1,0.5
"A-648","2,6-di-tert-butyl-4-[(dimethylamino)methyl]phenol",-2.7113870277,"C[NH+](C)Cc1cc(C(C)(C)C)c(O)c(C(C)(C)C)c1","C[NH+](C)Cc1cc(C(C)(C)C)c(O)c(C(C)(C)C)c1",15.313752052158815,"C[NH+](C)Cc1cc(C(C)(C)C)c(O)c(C(C)(C)C)c1",2.6317000000000013,24.67,264.23219100009,2,2,2,2,1,0,2,19,49,0,1,1,0,0,0,0,0,1,0,0,0.6470588235294118
"A-649","4-cyclohexyl-4-methylpentan-2-one",-3.5481536429,"CC(=O)CC(C)(C)C1CCCCC1","CC(=O)CC(C)(C)C1CCCCC1",20.061072332650873,"CC(=O)CC(C)(C)C1CCCCC1",3.5720000000000027,17.07,182.167065324,1,0,3,0,1,0,1,13,35,0,1,0,1,1,0,0,0,0,1,1,0.9166666666666666
"A-652","5-methyl-2-(propan-2-yl)cyclohexan-1-ol",-2.4880091207,"CC1CCC(C(C)C)C(O)C1","CC1CCC(C(C)C)C(O)C1",18.287881309683996,"CC1CCC(C(C)C)C(O)C1",2.4395000000000007,20.23,156.15141526,1,1,1,1,1,0,1,11,31,3,1,0,1,1,0,0,0,0,1,1,1
"A-655","1-N-phenylbenzene-1,4-diamine",-2.5631304762,"Nc1ccc(Nc2ccccc2)cc1","Nc1ccc(Nc2ccccc2)cc1",33.089825187633224,"Nc1ccc(Nc2ccccc2)cc1",3.0124000000000013,38.05,184.100048384,2,3,2,2,2,0,2,14,26,0,2,2,0,0,0,0,0,2,0,0,0
"A-656","N,2-dimethyl-N-phenylbutanamide",-1.5805795126,"CCC(C)C(=O)N(C)c1ccccc1","CCC(C)C(=O)N(C)c1ccccc1",16.857433396821982,"CCC(C)C(=O)N(C)c1ccccc1",2.695500000000001,20.310000000000002,191.131014164,2,0,3,0,1,1,2,14,31,1,1,1,0,0,0,0,0,1,0,0,0.4166666666666667
"A-659","pyridine-3-carboxamide",0.6121583154,"NC(=O)c1cccnc1","NC(=O)c1cccnc1",13.798779516334852,"NC(=O)c1cccnc1",0.18050000000000016,55.980000000000004,122.048012812,3,2,1,1,2,1,3,9,15,0,1,1,0,0,1,0,0,0,0,0,0
"A-662","3,5-dimethylphenol",-1.3879839049,"Cc1cc(C)cc(O)c1","Cc1cc(C)cc(O)c1",13.164739876604292,"Cc1cc(C)cc(O)c1",2.0090399999999997,20.23,122.07316494,1,1,0,1,1,0,1,9,19,0,1,1,0,0,0,0,0,1,0,0,0.25
"A-665","2,2-bis[(prop-2-enoyloxy)methyl]butyl prop-2-enoate",-2.772789495,"C=CC(=O)OCC(CC)(COC(=O)C=C)COC(=O)C=C","C=CC(=O)OCC(CC)(COC(=O)C=C)COC(=O)C=C",-25.063330692460955,"C=CC(=O)OCC(CC)(COC(=O)C=C)COC(=O)C=C",1.5703999999999998,78.9,296.12598836,6,0,10,0,6,0,6,21,41,0,0,0,0,0,0,0,0,0,0,0,0.4
"A-666","2,6-dimethylheptan-4-one",-2.4540578458,"CC(C)CC(=O)CC(C)C","CC(C)CC(=O)CC(C)C",2.8999801255131445,"CC(C)CC(=O)CC(C)C",2.6477000000000013,17.07,142.135765196,1,0,4,0,1,0,1,10,28,0,0,0,0,0,0,0,0,0,0,0,0.8888888888888888
"A-667","4-allyl-1,2-dimethoxybenzene",-2.5520132395,"C=CCc1ccc(OC)c(OC)c1","C=CCc1ccc(OC)c(OC)c1",32.38513328551074,"C=CCc1ccc(OC)c(OC)c1",2.4323000000000006,18.46,178.099379688,2,0,4,0,2,0,2,13,27,0,1,1,0,0,0,0,0,1,0,0,0.2727272727272727
"A-668","7-amino-4-hydroxynaphthalene-2-sulfonic acid",-2.6798855726,"Nc1ccc2c(O)cc(S(=O)(=O)[O-])cc2c1","Nc1ccc2c(O)cc(S(=O)(=O)[O-])cc2c1",26.049757833276566,"Nc1ccc2c(O)cc(S(=O)(=O)[O-])cc2c1",1.0317,103.45,238.01795231591,5,3,1,2,5,0,6,16,24,0,2,2,0,0,0,0,0,2,0,0,0
"A-673","methyl 2-[3-(acetyloxy)-2-pentylcyclopent-2-en-1-yl]acetate",-3.7219886724,"CCCCCC1=C(OC(C)=O)CCC1CC(=O)OC","CCCCCC1=C(OC(C)=O)CCC1CC(=O)OC",6.750769098221355,"CCCCCC1=C(OC(=O)C)CCC1CC(=O)OC",3.357000000000002,52.60000000000001,268.167459248,4,0,7,0,4,0,4,19,43,1,1,0,0,1,0,0,0,0,0,1,0.7333333333333333
"A-674","4-ethenylcyclohex-1-ene",-3.3351930307,"C=CC1CC=CCC1","C=CC1CC=CCC1",8.881004167045297,"C=CC1CC=CCC1",2.5287000000000006,0,108.093900384,0,0,1,0,0,0,0,8,20,1,1,0,0,1,0,0,0,0,0,1,0.5
"A-676","2-[(2-hydroxyethyl)[(9E)-octadec-9-en-1-yl]amino]ethan-1-ol",-4.7801182897,"CCCCCCCCC=CCCCCCCCC[NH+](CCO)CCO","CCCCCCCCC=CCCCCCCCC[NH+](CCO)CCO",15.377983080935786,"CCCCCCCCC=CCCCCCCCC[NH+](CCO)CCO",3.893400000000003,44.900000000000006,356.35230613208995,3,3,20,3,2,0,3,25,71,0,0,0,0,0,0,0,0,0,0,0,0.9090909090909091
"A-677","tributyl benzene-1,2,4-tricarboxylate",-4.807173711,"CCCCOC(=O)c1ccc(C(=O)OCCCC)c(C(=O)OCCCC)c1","CCCCOC(=O)c1ccc(C(=O)OCCCC)c(C(=O)OCCCC)c1",-14.52544450392925,"CCCCOC(=O)c1ccc(C(=O)OCCCC)c(C(=O)OCCCC)c1",4.557300000000004,78.90000000000002,378.20423867999995,6,0,12,0,6,0,6,27,57,0,1,1,0,0,0,0,0,1,0,0,0.5714285714285714
"A-679","1-(butan-2-yl)-4-{4-[4-(4-hydroxyphenyl)piperazin-1-yl]phenyl}-4,5-dihydro-1H-1,2,4-triazol-5-one",-4.8285219564,"CCC(C)n1ncn(-c2ccc(N3CCN(c4ccc(O)cc4)CC3)cc2)c1=O","CCC(C)N1N=CN(c2ccc(N3CCN(c4ccc(O)cc4)CC3)cc2)C1=O",138.36199860200372,"CCC(C)n1ncn(c2ccc(N3CCN(c4ccc(O)cc4)CC3)cc2)c1=O",3.702600000000003,62.62,393.216475104,7,1,5,1,5,2,7,29,56,1,4,2,1,2,0,1,2,2,0,0,0.36363636363636365
"A-683","undecan-1-ol",-4.4804406676,"CCCCCCCCCCCO","CCCCCCCCCCCO",-0.8587736971767479,"CCCCCCCCCCCO",3.5095000000000023,20.23,172.182715388,1,1,9,1,1,0,1,12,36,0,0,0,0,0,0,0,0,0,0,0,1
"A-689","(1S,2S,4S)-1,7,7-trimethylbicyclo[2.2.1]heptan-2-yl prop-2-enoate",-4.5830924552,"C=CC(=O)OC1C[C@@H]2CC[C@@]1(C)C2(C)C","C=CC(=O)OC1C[C@@H]2CC[C@@]1(C)C2(C)C",31.803682871434134,"C=CC(=O)OC1C[C@@H]2CC[C@@]1(C)C2(C)C",2.9304000000000014,26.3,208.14632988,2,0,2,0,2,0,2,15,35,3,2,0,2,2,0,0,0,0,2,2,0.7692307692307693
"A-690","2-quinolin-2-yl-1H-indene-1,3(2H)-dione",-4.7011861265,"O=C1c2ccccc2C(=O)C1c1ccc2ccccc2n1","O=C1c2ccccc2C(=O)C1c1ccc2ccccc2n1",43.23067824557848,"O=C1c2ccccc2C(=O)C1c1ccc2ccccc2n1",3.3976000000000015,47.03,273.07897859200006,3,0,1,0,3,0,3,21,32,0,4,3,0,1,1,0,0,2,0,1,0.05555555555555555
"A-691","tert-butoxy 2-ethylhexyl carbonate",-4.6599585126,"CCCCC(CC)COC(=O)OOC(C)(C)C","CCCCC(CC)COC(=O)OOC(C)(C)C",11.651969573614467,"CCCCC(CC)COC(=O)OOC(C)(C)C",4.086100000000004,44.760000000000005,246.183109312,4,0,7,0,4,0,4,17,43,1,0,0,0,0,0,0,0,0,0,0,0.9230769230769231
"A-693","3,3,5-trimethylcyclohexyl 2-methylprop-2-enoate",-4.5985985087,"C=C(C)C(=O)OC1CC(C)CC(C)(C)C1","C=C(C)C(=O)OC1CC(C)CC(C)(C)C1",-5.854779561428792,"C=C(C)C(=O)OC1CC(C)CC(C)(C)C1",3.320500000000002,26.3,210.161979944,2,0,2,0,2,0,2,15,37,2,1,0,1,1,0,0,0,0,1,1,0.7692307692307693
"A-701","(3Z)-hex-3-en-1-yl 2-hydroxybenzoate",-4.6439814041,"CCC=CCCOC(=O)c1ccccc1O","CCC=CCCOC(=O)c1ccccc1O",12.696668992977958,"CCC=CCCOC(=O)c1ccccc1O",2.9053000000000018,46.53,220.109944372,3,1,5,1,3,0,3,16,32,0,1,1,0,0,0,0,0,1,0,0,0.3076923076923077
"A-705","(2S,5R)-5-methyl-2-(propan-2-yl)cyclohexan-1-one",-2.4918772305,"CC(C)[C@@H]1CC[C@@H](C)CC1=O","CC(C)[C@@H]1CC[C@@H](C)CC1=O",12.84118339039061,"CC(C)[C@@H]1CC[C@@H](C)CC1=O",2.6477000000000013,17.07,154.135765196,1,0,1,0,1,0,1,11,29,2,1,0,1,1,0,0,0,0,1,1,0.9
"A-706","4-(methoxycarbonyl)-3-nitrobenzoic acid",-2.6570018481,"COC(=O)c1ccc(C(=O)[O-])cc1[N+](=O)[O-]","COC(=O)c1ccc(C(=O)[O-])cc1[N+](=O)[O-]",-4.9576496457659225,"COC(=O)c1ccc(C(=O)[O-])cc1[N+](=O)[O-]",-0.2551000000000002,109.57000000000002,224.02006049191002,7,0,3,0,6,0,7,16,22,0,1,1,0,0,0,0,0,1,0,0,0.1111111111111111
"A-708","1,3,5-trimethylbenzene",-3.382657059,"Cc1cc(C)cc(C)c1","Cc1cc(C)cc(C)c1",8.551209117452428,"Cc1cc(C)cc(C)c1",2.611860000000001,0,120.093900384,0,0,0,0,0,0,0,9,21,0,1,1,0,0,0,0,0,1,0,0,0.3333333333333333
"A-709","2-methyl-6-methylideneoct-7-en-2-yl acetate",-3.5974164985,"C=CC(=C)CCCC(C)(C)OC(C)=O","C=CC(=C)CCCC(C)(C)OC(C)=O",-3.577800464774347,"C=CC(=C)CCCC(C)(C)OC(=O)C",3.2406000000000024,26.3,196.14632988,2,0,6,0,2,0,2,14,34,0,0,0,0,0,0,0,0,0,0,0,0.5833333333333334
"A-718","N,N-dipropylpropan-1-amine",-2.4722202552,"CCC[NH+](CCC)CCC","CCC[NH+](CCC)CCC",3.2868126410707155,"CCC[NH+](CCC)CCC",1.1012999999999995,4.44,144.17467612408998,1,1,6,1,0,0,1,10,32,0,0,0,0,0,0,0,0,0,0,0,1
"A-722","2-oxo-N-{6-[(2-oxoazepane-1-carbonyl)amino]hexyl}azepane-1-carboxamide",-3.9064006561,"O=C1CCCCCN1C(=O)NCCCCCCNC(=O)N1CCCCCC1=O","O=C1CCCCCN1C(=O)NCCCCCCNC(=O)N1CCCCCC1=O",-96.24477042673945,"O=C1CCCCCN1C(=O)NCCCCCCNC(=O)N1CCCCCC1=O",2.771200000000001,98.82,394.258005568,8,2,7,2,4,6,8,28,62,0,2,0,2,2,0,2,2,0,0,0,0.8
"A-724","3-methylbutyl 3-methylbutanoate",-3.5540595353,"CC(C)CCOC(=O)CC(C)C","CC(C)CCOC(=O)CC(C)C",-9.800658406656794,"CC(C)CCOC(=O)CC(C)C",2.6218000000000012,26.3,172.14632988,2,0,5,0,2,0,2,12,32,0,0,0,0,0,0,0,0,0,0,0,0.9
"A-725","2-propylheptan-1-ol",-3.5181985232,"CCCCCC(CO)CCC","CCCCCC(CO)CCC",3.7055193231081556,"CCCCCC(CO)CCC",2.9753000000000016,20.23,158.167065324,1,1,7,1,1,0,1,11,33,1,0,0,0,0,0,0,0,0,0,0,1
"A-726","4-[2-(4-aminophenyl)ethyl]aniline",-3.6457005741,"Nc1ccc(CCc2ccc(N)cc2)cc1","Nc1ccc(CCc2ccc(N)cc2)cc1",29.81096548537296,"Nc1ccc(CCc2ccc(N)cc2)cc1",2.6362000000000005,52.04,212.131348512,2,4,3,2,2,0,2,16,32,0,2,2,0,0,0,0,0,2,0,0,0.14285714285714285
"A-728","methyl nicotinate",-0.4595508588,"COC(=O)c1cccnc1","COC(=O)c1cccnc1",3.4182561434918854,"COC(=O)c1cccnc1",0.8681999999999999,39.19,137.047678464,3,0,1,0,3,0,3,10,17,0,1,1,0,0,1,0,0,0,0,0,0.14285714285714285
"A-738","4-tert-butylbenzoic acid",-3.5779623367,"CC(C)(C)c1ccc(C(=O)[O-])cc1","CC(C)(C)c1ccc(C(=O)[O-])cc1",25.80918788845935,"CC(C)(C)c1ccc(C(=O)[O-])cc1",1.3476,40.129999999999995,177.09210323591,2,0,1,0,2,0,2,13,26,0,1,1,0,0,0,0,0,1,0,0,0.36363636363636365
"A-742","8-aminonaphthalene-2-sulfonic acid",-1.682279323,"Nc1cccc2ccc(S(=O)(=O)[O-])cc12","Nc1cccc2ccc(S(=O)(=O)[O-])cc12",29.87621828604243,"Nc1cccc2ccc(S(=O)(=O)[O-])cc12",1.3261,83.22,222.02303769591,4,2,1,1,4,0,5,15,23,0,2,2,0,0,0,0,0,2,0,0,0
"A-744","2,3-dimethylphenol",-1.4241960776,"Cc1cccc(O)c1C","Cc1cccc(O)c1C",16.7606207220909,"Cc1cccc(O)c1C",2.0090399999999997,20.23,122.07316494,1,1,0,1,1,0,1,9,19,0,1,1,0,0,0,0,0,1,0,0,0.25
"A-749","tert-butyl 2-ethylhexaneperoxoate",-3.6695176909,"CCCCC(CC)C(=O)OOC(C)(C)C","CCCCC(CC)C(=O)OOC(C)(C)C",21.438149321405,"CCCCC(CC)C(=O)OOC(C)(C)C",3.4761000000000024,35.53,216.172544628,3,0,6,0,3,0,3,15,39,1,0,0,0,0,0,0,0,0,0,0,0.9166666666666666
"A-750","2,6,6-trimethylbicyclo[3.1.1]heptane-3-carbaldehyde",-3.5580403929,"CC1C(C=O)CC2CC1C2(C)C","CC1C(C=O)CC2CC1C2(C)C",22.521847593513208,"CC1C(C=O)CC2CC1C2(C)C",2.5036000000000005,17.07,166.135765196,1,0,1,0,1,0,1,12,30,4,3,0,3,3,0,0,0,0,3,3,0.9090909090909091
"A-752","2-methyl-4-phenylbutan-2-ol",-1.555639677,"CC(C)(O)CCc1ccccc1","CC(C)(O)CCc1ccccc1",14.067556450165561,"CC(C)(O)CCc1ccccc1",2.3901000000000003,20.23,164.120115132,1,1,3,1,1,0,1,12,28,0,1,1,0,0,0,0,0,1,0,0,0.45454545454545453
"A-756","4-nitrophenyl acetate",-2.5992568252,"CC(=O)Oc1ccc([N+](=O)[O-])cc1","CC(=O)Oc1ccc([N+](=O)[O-])cc1",30.883722081346512,"CC(=O)Oc1ccc([N+](=O)[O-])cc1",1.5200999999999998,69.44,181.037507704,5,0,2,0,4,0,5,13,20,0,1,1,0,0,0,0,0,1,0,0,0.125
"A-758","1-(1-benzofuran-2-yl)ethan-1-one",-2.5484883965,"CC(=O)c1cc2ccccc2o1","CC(=O)c1cc2ccccc2o1",25.983578471157713,"CC(=O)c1cc2ccccc2o1",2.6354000000000006,30.21,160.052429496,2,0,1,0,2,0,2,12,20,0,2,2,0,0,1,0,0,1,0,0,0.1
"A-761","1-[(2-tert-butylcyclohexyl)oxy]butan-2-ol",-3.698734262,"CCC(O)COC1CCCCC1C(C)(C)C","CCC(O)COC1CCCCC1C(C)(C)C",37.46009542507277,"CCC(O)COC1CCCCC1C(C)(C)C",3.378800000000002,29.46,228.208930136,2,1,4,1,2,0,2,16,44,3,1,0,1,1,0,0,0,0,1,1,1
"A-770","menthane, monohydroperoxy derivative",-2.5888216416,"CC1CCC(C(C)C)C(OO)C1","CC1CCC(C(C)C)C(OO)C1",16.762766512473334,"CC1CCC(C(C)C)C(OO)C1",2.9368000000000007,29.46,172.14632988,2,1,2,1,2,0,2,12,32,3,1,0,1,1,0,0,0,0,1,1,1
"A-773","1-benzoylcyclohexan-1-ol",-2.6647801935,"O=C(c1ccccc1)C1(O)CCCCC1","O=C(c1ccccc1)C1(O)CCCCC1",47.67830513126376,"O=C(c1ccccc1)C1(O)CCCCC1",2.5645000000000007,37.3,204.115029752,2,1,2,1,2,0,2,15,31,0,2,1,1,1,0,0,0,1,1,1,0.46153846153846156
"A-777","2-ethoxy-3-[[4-[2-(2H-tetrazol-5-yl)phenyl]phenyl]methyl]benzimidazole-4-carboxylic acid",-6.4977813968,"CCOc1nc2cccc(C(=O)[O-])c2n1Cc1ccc(-c2ccccc2-c2nn[n-]n2)cc1","CCOc1nc2cccc(C(=O)[O-])c2n1Cc1ccc(-c2ccccc2-c2nn[n-]n2)cc1",79.78054170067732,"CCOc1nc2cccc(C(=O)[O-])c2n1Cc1ccc(c2ccccc2c2nn[n-]n2)cc1",2.3229999999999995,119.95,438.1451355958201,9,0,7,0,8,0,9,33,51,0,5,5,0,0,2,0,0,3,0,0,0.125
"A-780","2-tert-butyl-6-(3-tert-butyl-2-hydroxy-5-methoxyphenyl)-4-methoxyphenol",-6.7763112575,"COc1cc(-c2cc(OC)cc(C(C)(C)C)c2O)c(O)c(C(C)(C)C)c1","COc1cc(-c2cc(OC)cc(C(C)(C)C)c2O)c(O)c(C(C)(C)C)c1",66.54632398887924,"COc1cc(c2cc(OC)cc(C(C)(C)C)c2O)c(O)c(C(C)(C)C)c1",5.377000000000007,58.92,358.21440944,4,2,3,2,4,0,4,26,56,0,2,2,0,0,0,0,0,2,0,0,0.45454545454545453
"A-781","Tazobactam",-1.8384616763,"C[C@]1(Cn2ccnn2)[C@H](C(=O)[O-])N2C(=O)C[C@H]2S1(=O)=O","C[C@]1(Cn2ccnn2)[C@H](C(=O)[O-])N2C(=O)C[C@H]2S1(=O)=O",-20.661378561991267,"C[C@]1(Cn2ccnn2)[C@H](C(=O)[O-])N2C(=O)C[C@H]2S1(=O)=O",-2.857899999999997,125.28999999999999,299.04556403191,9,0,3,0,8,1,10,20,31,3,3,1,2,2,1,2,2,0,0,0,0.6
"A-784","N-methyl-N-phenylformamide",-1.4947809467,"CN(C=O)c1ccccc1","CN(C=O)c1ccccc1",-0.12082783033564759,"CN(C=O)c1ccccc1",1.2792,20.310000000000002,135.068413908,2,0,2,0,1,1,2,10,19,0,1,1,0,0,0,0,0,1,0,0,0.125
"A-787","4-aminobenzene-1,3-disulfonic acid",-1.7700930025,"Nc1ccc(S(=O)(=O)[O-])cc1S(=O)(=O)[O-]","Nc1ccc(S(=O)(=O)[O-])cc1S(=O)(=O)[O-]",58.701859791860805,"Nc1ccc(S(=O)(=O)[O-])cc1S(=O)(=O)[O-]",-0.9229999999999998,140.42,250.95692603982002,7,2,2,1,7,0,9,15,20,0,1,1,0,0,0,0,0,1,0,0,0
"A-790","4-methoxy-3-nitrobenzoic acid",-2.6613195143,"COc1ccc(C(=O)[O-])cc1[N+](=O)[O-]","COc1ccc(C(=O)[O-])cc1[N+](=O)[O-]",38.65641103483575,"COc1ccc(C(=O)[O-])cc1[N+](=O)[O-]",-0.03310000000000013,92.5,196.02514587191,6,0,3,0,5,0,6,14,20,0,1,1,0,0,0,0,0,1,0,0,0.125
"A-791","androsta-1,4-diene-3,17-dione",-2.8204596094,"CC12C=CC(=O)C=C1CCC1C2CCC2(C)C(=O)CCC12","CC12C=CC(=O)C=C1CCC1C2CCC2(C)C(=O)CCC12",56.415242398822485,"CC12C=CC(=O)C=C1CCC1C2CCC2(C)C(=O)CCC12",3.863400000000003,34.14,284.177630008,2,0,0,0,2,0,2,21,45,5,4,0,3,4,0,0,0,0,3,4,0.6842105263157895
"A-792","2-phenylethyl pivalate",-3.6752800895,"CC(C)(C)C(=O)OCCc1ccccc1","CC(C)(C)C(=O)OCCc1ccccc1",10.873292932751426,"CC(C)(C)C(=O)OCCc1ccccc1",2.8184000000000013,26.3,206.130679816,2,0,3,0,2,0,2,15,33,0,1,1,0,0,0,0,0,1,0,0,0.46153846153846156
"A-793","1-cyclohexylethyl acetate",-3.5976237668,"CC(=O)OC(C)C1CCCCC1","CC(=O)OC(C)C1CCCCC1",2.407919149648656,"CC(=O)OC(C)C1CCCCC1",2.518300000000001,26.3,170.130679816,2,0,2,0,2,0,2,12,30,1,1,0,1,1,0,0,0,0,1,1,0.9
"A-794","4-(2,6,6-trimethylcyclohex-1-en-1-yl)butan-2-one",-3.6550445763,"CC(=O)CCC1=C(C)CCCC1(C)C","CC(=O)CCC1=C(C)CCCC1(C)C",14.197122888943934,"CC(=O)CCC1=C(C)CCCC1(C)C",3.8822000000000036,17.07,194.167065324,1,0,3,0,1,0,1,14,36,0,1,0,0,1,0,0,0,0,0,1,0.7692307692307693
"A-803","hexan-1-ol",-1.382910122,"CCCCCCO","CCCCCCO",1.3860565879251918,"CCCCCCO",1.559,20.23,102.104465068,1,1,4,1,1,0,1,7,21,0,0,0,0,0,0,0,0,0,0,0,1
"A-811","(2E,6E)-3,7-dimethylnona-2,6-dienenitrile",-3.5896411422,"CCC(C)=CCCC(C)=CC#N","CCC(C)=CCCC(C)=CC#N",17.621683416536506,"CCC(=CCCC(=CC#N)C)C",3.592780000000002,23.79,163.136099544,1,0,4,0,1,0,1,12,29,0,0,0,0,0,0,0,0,0,0,0,0.5454545454545454
"A-812","5-hexyl-5-methyldihydrofuran-2(3H)-one",-2.6432618239,"CCCCCCC1(C)CCC(=O)O1","CCCCCCC1(C)CCC(=O)O1",-4.142564575582419,"CCCCCCC1(C)CCC(=O)O1",3.052500000000002,26.3,184.14632988,2,0,5,0,2,0,2,13,33,1,1,0,1,1,0,1,1,0,0,0,0.9090909090909091
"A-818","Patchoulialcohol",-3.7259038203,"C[C@H]1CCC2(O)C(C)(C)C3CC[C@@]2(C)C1C3","C[C@H]1CCC2(O)C(C)(C)C3CC[C@@]2(C)C1C3",56.53831667973018,"C[C@H]1CCC2(O)C(C)(C)C3CC[C@@]2(C)C1C3",3.6098000000000026,20.23,222.198365452,1,1,0,1,1,0,1,16,42,5,4,0,4,4,0,0,0,0,4,4,1
"A-824","dibenzylamine",-2.6876302374,"c1ccc(C[NH2+]Cc2ccccc2)cc1","c1ccc(C[NH2+]Cc2ccccc2)cc1",15.300347517528238,"c1ccc(C[NH2+]Cc2ccccc2)cc1",1.9501999999999997,16.61,198.12772593209,1,2,4,1,0,0,1,15,31,0,2,2,0,0,0,0,0,2,0,0,0.14285714285714285
"A-825","5-methyl-1H-1,2,3-benzotriazole",-1.5169635388,"Cc1cccc2n[nH]nc12","Cc1cccc2n[nH]nc12",16.65906400223616,"Cc1cccc2n[nH]nc12",1.26632,41.57,133.063997224,3,1,0,1,2,0,3,10,17,0,2,2,0,0,1,0,0,1,0,0,0.14285714285714285
"A-826","3-amino-2-hydroxy-5-nitrobenzene-1-sulfonic acid",-1.7662055678,"Nc1cc([N+](=O)[O-])cc(S(=O)(=O)[O-])c1[O-]","Nc1cc([N+](=O)[O-])cc(S(=O)(=O)[O-])c1[O-]",141.76986836184102,"Nc1cc([N+](=O)[O-])cc(S(=O)(=O)[O-])c1[O-]",-0.8453000000000002,149.42,231.98010400782002,8,2,2,1,7,0,9,15,19,0,1,1,0,0,0,0,0,1,0,0,0
"A-830","1,2-dimethyl benzene-1,2-dicarboxylate",-1.6861579246,"COC(=O)c1ccccc1C(=O)OC","COC(=O)c1ccccc1C(=O)OC",-8.317084892845049,"COC(=O)c1ccccc1C(=O)OC",1.2597999999999998,52.60000000000001,194.0579088,4,0,2,0,4,0,4,14,24,0,1,1,0,0,0,0,0,1,0,0,0.2
"A-832","6-heptyloxan-2-one",-1.6290322311,"CCCCCC1CCCC(=O)O1","CCCCCC1CCCC(=O)O1",0.5223623658818823,"CCCCCC1CCCC(=O)O1",2.6624000000000008,26.3,170.130679816,2,0,4,0,2,0,2,12,30,1,1,0,1,1,0,1,1,0,0,0,0.9
"A-833","ethyl 4,4,4-trifluoro-3-oxobutanoate",-1.6630244633,"CCOC(=O)CC(=O)C(F)(F)F","CCOC(=O)CC(=O)C(F)(F)F",-1.08529336869994,"CCOC(=O)CC(=O)C(F)(F)F",1.0710000000000002,43.370000000000005,184.034728744,3,0,3,0,3,0,6,12,19,0,0,0,0,0,0,0,0,0,0,0,0.6666666666666666
"A-834","oxydiethane-2,1-diyl dinitrate",-1.6904508209,"O=[N+]([O-])OCCOCCO[N+](=O)[O-]","O=[N+]([O-])OCCOCCO[N+](=O)[O-]",-25.388379775476665,"O=[N+]([O-])OCCOCCO[N+](=O)[O-]",-0.5804,113.97000000000003,196.033150596,9,0,8,0,7,0,9,13,21,0,0,0,0,0,0,0,0,0,0,0,1
"A-842","pentyl pentanoate",-3.6244813037,"CCCCCOC(=O)CCCC","CCCCCOC(=O)CCCC",-9.716811051953677,"CCCCCOC(=O)CCCC",2.910000000000001,26.3,172.14632988,2,0,7,0,2,0,2,12,32,0,0,0,0,0,0,0,0,0,0,0,0.9
"A-843","3-methyl-1-({3-[(3-methyl-2,5-dioxo-2,5-dihydro-1H-pyrrol-1-yl)methyl]phenyl}methyl)-2,5-dihydro-1H-pyrrole-2,5-dione",-3.9003349932,"CC1=CC(=O)N(Cc2cccc(CN3C(=O)C=C(C)C3=O)c2)C1=O","CC1=CC(=O)N(Cc2cccc(CN3C(=O)C=C(C)C3=O)c2)C1=O",-117.00327789018141,"CC1=CC(=O)N(Cc2cccc(CN3C(=O)C=C(C)C3=O)c2)C1=O",1.3168,74.76,324.11100699199994,6,0,4,0,4,4,6,24,40,0,3,1,0,2,0,0,2,1,0,0,0.2222222222222222
"A-848","(3Z)-hex-3-en-1-yl benzoate",-3.7048974167,"CCC=CCCOC(=O)c1ccccc1","CCC=CCCOC(=O)c1ccccc1",12.094798416346443,"CCC=CCCOC(=O)c1ccccc1",3.1997000000000018,26.3,204.115029752,2,0,5,0,2,0,2,15,31,0,1,1,0,0,0,0,0,1,0,0,0.3076923076923077