"ID","Name","Solubility","SMILES Canonical","Smiles (Optimized Geometry)","Energy","Smiles","SlogP","TPSA","ExactMW","NumLipinskiHBA","NumLipinskiHBD","NumRotatableBonds","NumHBD","NumHBA","NumAmideBonds","NumHeteroAtoms","NumHeavyAtoms","NumAtoms","NumStereocenters","NumRings","NumAromaticRings","NumSaturatedRings","NumAliphaticRings","NumAromaticHeterocycles","NumSaturatedHeterocycles","NumAliphaticHeterocycles","NumAromaticCarbocycles","NumSaturatedCarbocycles","NumAliphaticCarbocycles","FractionCSP3"
"A-5841","2,2'-[ethylenebis(oxyphenyl-2,1-eneazo)]bis[N-(2,3-dihydro-2-oxo-1H-benzimidazol-5-yl)-3-oxobutyramide",-7.6344855683,"CC(=O)C(N=Nc1ccccc1OCCOc1ccccc1N=NC(C(C)=O)C(=O)Nc1ccc2[nH]c(=O)[nH]c2c1)C(=O)Nc1ccc2[nH]c(=O)[nH]c2c1","CC(=O)C(N=Nc1ccccc1OCCOc1ccccc1N=NC(C(C)=O)C(=O)Nc1ccc2c(c1)NC(=O)N2)C(=O)Nc1ccc2c(c1)NC(=O)N2",174.80307001077838,"CC(=O)C(N=Nc1ccccc1OCCOc1ccccc1N=NC(C(=O)C)C(=O)Nc1ccc2c(c1)[nH]c(=O)[nH]2)C(=O)Nc1ccc2c(c1)[nH]c(=O)[nH]2",6.419200000000004,242.49999999999997,732.240457984,18,6,15,6,12,6,18,54,86,2,6,4,0,2,0,0,2,4,0,0,0.16666666666666666
"A-5847","cyclododecane",-7.0220260604,"C1CCCCCCCCCCC1","C1CCCCCCCCCCC1",8.733752177367707,"C1CCCCCCCCCCC1",4.681200000000004,0,168.187800768,0,0,0,0,0,0,0,12,36,0,1,0,1,1,0,0,0,0,1,1,1
"A-5849","hexyl 2-[4-(diethylamino)-2-hydroxybenzoyl]benzoate",-7.3952335385,"CCCCCCOC(=O)c1ccccc1C(=O)c1ccc(N(CC)CC)cc1O","CCCCCCOC(=O)c1ccccc1C(=O)c1ccc(N(CC)CC)cc1O",40.464742063856555,"CCCCCCOC(=O)c1ccccc1C(=O)c1ccc(N(CC)CC)cc1O",5.206500000000006,66.84,397.225308472,5,1,11,1,5,0,5,29,60,0,2,2,0,0,0,0,0,2,0,0,0.4166666666666667
"A-5854","Solvent orange 60",-7.255740326,"O=C1c2ccccc2C2=[NH+]c3cccc4cccc(c34)N12","O=C1c2ccccc2C2=[NH+]c3cccc4cccc(c34)N12",13.9397719373967,"O=C1c2ccccc2c2[nH+]c3cccc4cccc(c34)n12",1.9724999999999997,34.28,271.08658939209005,3,1,0,1,1,1,3,21,32,0,5,3,0,2,0,0,2,3,0,0,0
"A-5864","3-oxo-N-(2-oxo-2,3-dihydro-1H-1,3-benzodiazol-5-yl)-2-[(E)-2-[2-(trifluoromethyl)phenyl]diazen-1-yl]butanamide",-7.455526833,"CC(=O)C(N=Nc1ccccc1C(F)(F)F)C(=O)Nc1ccc2[nH]c(=O)[nH]c2c1","CC(=O)C(N=Nc1ccccc1C(F)(F)F)C(=O)Nc1ccc2c(c1)NC(=O)N2",55.726592616998616,"CC(=O)C(N=Nc1ccccc1C(F)(F)F)C(=O)Nc1ccc2c(c1)[nH]c(=O)[nH]2",4.342800000000001,112.02000000000001,405.10487396800005,8,3,5,3,5,3,11,29,43,1,3,2,0,1,0,0,1,2,0,0,0.16666666666666666
"A-5868","10-[(2-methylprop-2-enoyl)oxy]decyl 2-methylprop-2-enoate",-6.3502060506,"C=C(C)C(=O)OCCCCCCCCCCOC(=O)C(=C)C","C=C(C)C(=O)OCCCCCCCCCCOC(=O)C(=C)C",-34.02392351285419,"C=C(C)C(=O)OCCCCCCCCCCOC(=O)C(=C)C",4.345800000000004,52.6,310.21440944,4,0,13,0,4,0,4,22,52,0,0,0,0,0,0,0,0,0,0,0,0.6666666666666666
"A-5875","2-[(E)-2-(4-methyl-2-nitrophenyl)diazen-1-yl]-3-oxo-N-phenylbutanamide",-7.4179683662,"CC(=O)C(N=Nc1ccc(C)cc1[N+](=O)[O-])C(=O)Nc1ccccc1","CC(=O)C(N=Nc1ccc(C)cc1[N+](=O)[O-])C(=O)Nc1ccccc1",61.4171722371263,"CC(=O)C(N=Nc1ccc(C)cc1[N+](=O)[O-])C(=O)Nc1ccccc1",3.5832200000000016,114.03,340.117154992,8,1,6,1,6,1,8,25,41,1,2,2,0,0,0,0,0,2,0,0,0.17647058823529413
"A-5883","decanoyl decaneperoxoate",-6.4497523604,"CCCCCCCCCC(=O)OOC(=O)CCCCCCCCC","CCCCCCCCCC(=O)OOC(=O)CCCCCCCCC",8.379921827344498,"CCCCCCCCCC(=O)OOC(=O)CCCCCCCCC",6.269200000000007,52.6,342.277009696,4,0,16,0,4,0,4,24,62,0,0,0,0,0,0,0,0,0,0,0,0.9
"A-5895","4-[(E)-2-(4-carbamoylphenyl)diazen-1-yl]-N-(2-ethoxyphenyl)-3-hydroxynaphthalene-2-carboxamide",-7.5819735484,"CCOc1ccccc1NC(=O)C1=Cc2ccccc2C(=NNc2ccc(C(N)=O)cc2)C1=O","CCOc1ccccc1NC(=O)C1=Cc2ccccc2C(=NNc2ccc(C(N)=O)cc2)C1=O",89.50602528130035,"CCOc1ccccc1NC(=O)C1=Cc2ccccc2C(=NNc2ccc(C(=O)N)cc2)C1=O",3.605200000000001,122.88,454.16410518400005,8,4,7,3,6,2,8,34,56,0,4,3,0,1,0,0,0,3,0,1,0.07692307692307693
"A-5896","3-hydroxy-4-[(2-methyl-5-nitrophenyl)diazenyl]-N-phenyl-2-naphthamide",-7.5579677799,"Cc1ccc([N+](=O)[O-])cc1NN=C1C(=O)C(C(=O)Nc2ccccc2)=Cc2ccccc21","Cc1ccc([N+](=O)[O-])cc1NN=C1C(=O)C(C(=O)Nc2ccccc2)=Cc2ccccc21",81.98289410968351,"Cc1ccc([N+](=O)[O-])cc1NN=C1C(=O)C(=Cc2ccccc12)C(=O)Nc1ccccc1",4.324220000000003,113.69999999999999,426.132805056,8,2,5,2,6,1,8,32,50,0,4,3,0,1,0,0,0,3,0,1,0.041666666666666664
"A-5898","2-[(E)-2-(4-nitrophenyl)diazen-1-yl]-3-oxo-N-(2-oxo-2,3-dihydro-1H-1,3-benzodiazol-5-yl)butanamide",-7.5255403409,"CC(=O)C(N=Nc1ccc([N+](=O)[O-])cc1)C(=O)Nc1ccc2[nH]c(=O)[nH]c2c1","CC(=O)C(N=Nc1ccc([N+](=O)[O-])cc1)C(=O)Nc1ccc2c(c1)NC(=O)N2",70.96771607358667,"CC(=O)C(N=Nc1ccc([N+](=O)[O-])cc1)C(=O)Nc1ccc2c(c1)[nH]c(=O)[nH]2",3.2321999999999997,155.16,382.102567548,11,3,6,3,7,3,11,28,42,1,3,2,0,1,0,0,1,2,0,0,0.11764705882352941
"A-5901","12-[(2-methylprop-2-enoyl)oxy]dodecyl 2-methylprop-2-enoate",-7.484220298,"C=C(C)C(=O)OCCCCCCCCCCCCOC(=O)C(=C)C","C=C(C)C(=O)OCCCCCCCCCCCCOC(=O)C(=C)C",-37.4809080584752,"C=C(C)C(=O)OCCCCCCCCCCCCOC(=O)C(=C)C",5.126000000000005,52.6,338.245709568,4,0,15,0,4,0,4,24,58,0,0,0,0,0,0,0,0,0,0,0,0.7
"A-5909","N-(4-carbamoylphenyl)-4-[(E)-2-{2-oxo-1-[(2-oxo-2,3-dihydro-1H-1,3-benzodiazol-5-yl)carbamoyl]propyl}diazen-1-yl]benzamide",-6.6728088056,"CC(=O)C(N=Nc1ccc(C(=O)Nc2ccc(C(N)=O)cc2)cc1)C(=O)Nc1ccc2[nH]c(=O)[nH]c2c1","CC(=O)C(N=Nc1ccc(C(=O)Nc2ccc(C(N)=O)cc2)cc1)C(=O)Nc1ccc2c(c1)NC(=O)N2",96.37730538453093,"CC(=O)C(N=Nc1ccc(C(=O)Nc2ccc(C(=O)N)cc2)cc1)C(=O)Nc1ccc2c(c1)[nH]c(=O)[nH]2",3.675200000000001,184.20999999999998,499.160416772,12,6,8,5,7,5,12,37,58,1,4,3,0,1,0,0,1,3,0,0,0.08
"A-5919","1-({[(piperidine-1-carbothioyldisulfanyl)disulfanyl]disulfanyl}methanethioyl)piperidine",-7.6317322062,"S=C(SSSSSSC(=S)N1CCCCC1)N1CCCCC1","S=C(SSSSSSC(=S)N1CCCCC1)N1CCCCC1",-48.91548027797741,"S=C(SSSSSSC(=S)N1CCCCC1)N1CCCCC1",6.502200000000005,6.48,447.93921664000004,2,0,5,0,8,0,10,22,42,0,2,0,2,2,0,2,2,0,0,0,0.8333333333333334
"A-5920","5,7,12,14-tetrahydro-5,12-diazapentacene-7,14-dione",-7.4817736955,"O=c1c2ccccc2[nH]c2cc3c(=O)c4ccccc4[nH]c3cc12","O=C1c2ccccc2Nc2cc3c(cc21)Nc1ccccc1C3=O",53.99033215638977,"O=c1c2ccccc2[nH]c2cc3c(cc12)[nH]c1ccccc1c3=O",4.262600000000002,58.2,312.089877624,4,2,0,2,4,0,4,24,36,0,5,3,0,2,0,0,2,3,0,0,0
"A-5923","1,2-Benzenedicarboxylic acid, benzyl C7-9-branched and linear alkyl esters",-8.2876520693,"CCCCCCCCOC(=O)c1ccccc1C(=O)OCc1ccccc1","CCCCCCCCOC(=O)c1ccccc1C(=O)OCc1ccccc1",-4.0700859576296855,"CCCCCCCCOC(=O)c1ccccc1C(=O)OCc1ccccc1",5.5609000000000055,52.60000000000001,368.198759376,4,0,11,0,4,0,4,27,55,0,2,2,0,0,0,0,0,2,0,0,0.391304347826087
"A-5924","2-[(E)-2-(4-methoxy-2-nitrophenyl)diazen-1-yl]-N-(2-methoxyphenyl)-3-oxobutanamide",-8.3082430527,"COc1ccc(N=NC(C(C)=O)C(=O)Nc2ccccc2OC)c([N+](=O)[O-])c1","COc1ccc(N=NC(C(C)=O)C(=O)Nc2ccccc2OC)c([N+](=O)[O-])c1",83.03621825482045,"COc1ccc(N=NC(C(=O)C)C(=O)Nc2ccccc2OC)c([N+](=O)[O-])c1",3.2920000000000016,132.49,386.12263429599994,10,1,8,1,8,1,10,28,46,1,2,2,0,0,0,0,0,2,0,0,0.2222222222222222
"A-5925","3-hydroxy-4-[(E)-2-[2-methoxy-5-(phenylcarbamoyl)phenyl]diazen-1-yl]-N-(2-oxo-2,3-dihydro-1H-1,3-benzodiazol-5-yl)naphthalene-2-carboxamide",-8.4790833317,"COc1ccc(C(=O)Nc2ccccc2)cc1NN=C1C(=O)C(C(=O)Nc2ccc3[nH]c(=O)[nH]c3c2)=Cc2ccccc21","COc1ccc(C(=O)Nc2ccccc2)cc1NN=C1C(=O)C(C(=O)Nc2ccc3c(c2)NC(=O)N3)=Cc2ccccc21",111.31490214979749,"COc1ccc(C(=O)Nc2ccccc2)cc1NN=C1C(=O)C(=Cc2ccccc12)C(=O)Nc1ccc2c(c1)[nH]c(=O)[nH]2",5.325900000000003,150.01999999999998,572.180817868,11,5,7,5,7,4,11,43,67,0,6,4,0,2,0,0,1,4,0,1,0.03125
"A-5928","N-[(1,1,3,3-tetramethylbutyl)phenyl]naphthalen-1-amine",-8.2900385416,"CC(C)(C)CC(C)(C)N(c1ccccc1)c1cccc2ccccc12","CC(C)(C)CC(C)(C)N(c1ccccc1)c1cccc2ccccc12",87.5428746024825,"CC(C)(C)CC(C)(C)N(c1ccccc1)c1cccc2ccccc12",7.192700000000007,3.24,331.229999928,1,0,4,0,1,0,1,25,54,0,3,3,0,0,0,0,0,3,0,0,0.3333333333333333
"A-5930","2-{[(2-{[3-(3,5-di-tert-butyl-4-hydroxyphenyl)propanoyl]oxy}ethyl)carbamoyl]formamido}ethyl 3-(3,5-di-tert-butyl-4-hydroxyphenyl)propanoate",-8.6670954079,"CC(C)(C)c1cc(CCC(=O)OCCNC(=O)C(=O)NCCOC(=O)CCc2cc(C(C)(C)C)c(O)c(C(C)(C)C)c2)cc(C(C)(C)C)c1O","CC(C)(C)c1cc(CCC(=O)OCCNC(=O)C(=O)NCCOC(=O)CCc2cc(C(C)(C)C)c(O)c(C(C)(C)C)c2)cc(C(C)(C)C)c1O",55.09469530669028,"CC(C)(C)c1cc(CCC(=O)OCCNC(=O)C(=O)NCCOC(=O)CCc2cc(C(C)(C)C)c(O)c(C(C)(C)C)c2)cc(C(C)(C)C)c1O",6.172000000000007,151.26,696.4349668799999,10,4,12,4,8,2,10,50,110,0,2,2,0,0,0,0,0,2,0,0,0.6
"A-5932","isohexadecyl 12-[(1-oxooctadecyl)oxy]octadecanoate",-8.7553724653,"CCCCCCCCCCCCCCCCCC(=O)OC(CCCCCC)CCCCCCCCCCC(=O)OCCCCCCCCCCCCCC(C)C","CCCCCCCCCCCCCCCCCC(=O)OC(CCCCCC)CCCCCCCCCCC(=O)OCCCCCCCCCCCCCC(C)C",-22.26112436120531,"CCCCCCCCCCCCCCCCCC(=O)OC(CCCCCC)CCCCCCCCCCC(=O)OCCCCCCCCCCCCCC(C)C",17.911499999999975,52.60000000000001,790.7778117439999,4,0,47,0,4,0,4,56,158,1,0,0,0,0,0,0,0,0,0,0,0.9615384615384616
"A-5933","(2R)-2,5,7,8-tetramethyl-2-[(4R,8R)-4,8,12-trimethyltridecyl]-3,4-dihydro-2H-1-benzopyran-6-ol",-8.520248661,"Cc1c(C)c2c(c(C)c1O)CC[C@@](C)(CCC[C@H](C)CCC[C@H](C)CCCC(C)C)O2","Cc1c(C)c2c(c(C)c1O)CC[C@@](C)(CCC[C@H](C)CCC[C@H](C)CCCC(C)C)O2",32.21884962242534,"Cc1c(C)c2c(c(C)c1O)CC[C@@](C)(CCC[C@H](C)CCC[C@H](C)CCCC(C)C)O2",8.840260000000002,29.46,430.38108084,2,1,12,1,2,0,2,31,81,3,2,1,0,1,0,0,1,1,0,0,0.7931034482758621
"A-5934","(2R)-2,5,7,8-tetramethyl-2-[(4R,8R)-4,8,12-trimethyltridecyl]-3,4-dihydro-2H-1-benzopyran-6-ol; (2R)-2,5,8-trimethyl-2-[(4R,8R)-4,8,12-trimethyltridecyl]-3,4-dihydro-2H-1-benzopyran-6-ol; (2R)-2,7,8-trimethyl-2-[(4R,8R)-4,8,12-trimethyltridecyl]-3,4-dihydro-2H-1-benzopyran-6-ol; (2R)-2,8-dimethyl-2-[(4R,8R)-4,8,12-trimethyltridecyl]-3,4-dihydro-2H-1-benzopyran-6-ol",-8.5058697258,"Cc1c(O)cc2c(c1C)OC(C)(CCCC(C)CCCC(C)CCCC(C)C)CC2","Cc1c(O)cc2c(c1C)OC(C)(CCCC(C)CCCC(C)CCCC(C)C)CC2",32.50200906350831,"Cc1c(O)cc2c(c1C)OC(C)(CCCC(C)CCCC(C)CCCC(C)C)CC2",8.531840000000004,29.46,416.365430776,2,1,12,1,2,0,2,30,78,3,2,1,0,1,0,0,1,1,0,0,0.7857142857142857
"A-5937","2-(hydroxymethyl)-2-[(oleoyloxy)methyl]butyl octadec-9-enoate (non-preferred name)",-8.7211960386,"CCCCCCCCC=CCCCCCCCC(=O)OCC(CC)(CO)COC(=O)CCCCCCCC=CCCCCCCCC","CCCCCCCCC=CCCCCCCCC(=O)OCC(CC)(CO)COC(=O)CCCCCCCC=CCCCCCCCC",-23.809295269845222,"CCCCCCCCC=CCCCCCCCC(=O)OCC(CC)(CO)COC(=O)CCCCCCCC=CCCCCCCCC",12.53649999999998,72.83000000000001,662.584925596,5,1,36,1,5,0,5,47,125,0,0,0,0,0,0,0,0,0,0,0,0.8571428571428571
"A-5941","4-[(E)-2-(1-butyl-5-cyano-2-hydroxy-4-methyl-6-oxo-1,6-dihydropyridin-3-yl)diazen-1-yl]-N-(2-ethylhexyl)benzene-1-sulfonamide",-8.7973134268,"CCCCC(CC)CNS(=O)(=O)c1ccc(N=Nc2c(C)c(C#N)c(=O)n(CCCC)c2[O-])cc1","CCCCC(CC)CNS(=O)(=O)c1ccc(N=NC2=C([O-])N(CCCC)C(=O)C(C#N)=C2C)cc1",-15.52019862682446,"CCCCC(CC)CNS(=O)(=O)c1ccc(N=Nc2c([O-])n(CCCC)c(=O)c(C#N)c2C)cc1",4.276780000000003,138.04999999999998,500.23369914791,9,1,13,1,7,1,10,35,69,1,2,1,0,1,0,0,1,1,0,0,0.52
"A-5958","1,1,2,2,3,3,3-heptafluoro-N,N-bis(heptafluoropropyl)propan-1-amine",-9.1359660934,"FC(F)(F)C(F)(F)C(F)(F)N(C(F)(F)C(F)(F)C(F)(F)F)C(F)(F)C(F)(F)C(F)(F)F","FC(F)(F)C(F)(F)C(F)(F)N(C(F)(F)C(F)(F)C(F)(F)F)C(F)(F)C(F)(F)C(F)(F)F",37.77023648241216,"FC(F)(F)C(F)(F)C(F)(F)N(C(F)(F)C(F)(F)C(F)(F)F)C(F)(F)C(F)(F)C(F)(F)F",6.659600000000003,3.24,520.96954162,1,0,6,0,1,0,22,31,31,0,0,0,0,0,0,0,0,0,0,0,1
"A-5961","2-[(1-amino-4-hydroxy-9,10-dioxo-9,10-dihydroanthracen-2-yl)oxy]ethyl ethyl carbonate",-9.2195295624,"CCOC(=O)OCCOc1cc([O-])c2c(c1N)C(=O)c1ccccc1C2=O","CCOC(=O)OCCOc1cc([O-])c2c(c1N)C(=O)c1ccccc1C2=O",45.704240677320975,"CCOC(=O)OCCOc1cc([O-])c2c(c1N)C(=O)c1ccccc1C2=O",1.6697000000000002,127.97999999999999,370.09322543190996,8,2,5,1,8,0,8,27,43,0,3,2,0,1,0,0,0,2,0,1,0.21052631578947367
"A-5972","1,4-bis(16-methylheptadecyl) 2-hydroxybutanedioate",-7.9926275988,"CC(C)CCCCCCCCCCCCCCCOC(=O)CC(O)C(=O)OCCCCCCCCCCCCCCCC(C)C","CC(C)CCCCCCCCCCCCCCCOC(=O)CC(O)C(=O)OCCCCCCCCCCCCCCCC(C)C",-26.23502444896257,"CC(C)CCCCCCCCCCCCCCCOC(=O)CC(O)C(=O)OCCCCCCCCCCCCCCCC(C)C",12.058599999999986,72.83,638.584925596,5,1,35,1,5,0,5,45,123,1,0,0,0,0,0,0,0,0,0,0,0.95
"A-5977","decyl 2-ethylhexanoate",-8.1939864578,"CCCCCCCCCCOC(=O)C(CC)CCCC","CCCCCCCCCCOC(=O)C(CC)CCCC",-9.841369018523805,"CCCCCCCCCCOC(=O)C(CC)CCCC",5.8867000000000065,26.3,284.271530392,2,0,14,0,2,0,2,20,56,1,0,0,0,0,0,0,0,0,0,0,0.9444444444444444
"A-5978","3,5,5-trimethylhexyl 3,5,5-trimethylhexanoate",-8.2779665867,"CC(CCOC(=O)CC(C)CC(C)(C)C)CC(C)(C)C","CC(CCOC(=O)CC(C)CC(C)(C)C)CC(C)(C)C",2.8140411069107856,"CC(CCOC(=O)CC(C)CC(C)(C)C)CC(C)(C)C",5.454400000000006,26.3,284.271530392,2,0,7,0,2,0,2,20,56,2,0,0,0,0,0,0,0,0,0,0,0.9444444444444444
"A-5979","tetradecyl octadecanoate",-8.9830504541,"CCCCCCCCCCCCCCCCCC(=O)OCCCCCCCCCCCCCC","CCCCCCCCCCCCCCCCCC(=O)OCCCCCCCCCCCCCC",-13.583830269806393,"CCCCCCCCCCCCCCCCCC(=O)OCCCCCCCCCCCCCC",11.492199999999986,26.3,480.49063128800003,2,0,29,0,2,0,2,34,98,0,0,0,0,0,0,0,0,0,0,0,0.96875
"A-5982","1-phenyldecane-1,3-dione",-5.8836966949,"CCCCCCCC(=O)CC(=O)c1ccccc1","CCCCCCCC(=O)CC(=O)c1ccccc1",6.804727088672038,"CCCCCCCC(=O)CC(=O)c1ccccc1",4.189000000000004,34.14,246.161979944,2,0,9,0,2,0,2,18,40,0,1,1,0,0,0,0,0,1,0,0,0.5
"A-5992","1-[(E)-2-(4-methoxy-2-nitrophenyl)diazen-1-yl]naphthalen-2-ol",-7.9911025111,"COc1ccc(NN=C2C(=O)C=Cc3ccccc32)c([N+](=O)[O-])c1","COc1ccc(NN=C2C(=O)C=Cc3ccccc32)c([N+](=O)[O-])c1",84.52972498636163,"COc1ccc(NN=C2C(=O)C=Cc3ccccc23)c([N+](=O)[O-])c1",3.015500000000001,93.83,323.090605896,7,1,4,1,6,0,7,24,37,0,3,2,0,1,0,0,0,2,0,1,0.058823529411764705
"A-5993","2-{[2-hydroxy-5-methyl-3-(1-methylcyclohexyl)phenyl]methyl}-4-methyl-6-(1-methylcyclohexyl)phenol",-8.1467862166,"Cc1cc(Cc2cc(C)cc(C3(C)CCCCC3)c2O)c(O)c(C2(C)CCCCC2)c1","Cc1cc(Cc2cc(C)cc(C3(C)CCCCC3)c2O)c(O)c(C2(C)CCCCC2)c1",56.38224054917768,"Cc1cc(Cc2cc(C)cc(C3(C)CCCCC3)c2O)c(O)c(C2(C)CCCCC2)c1",7.749040000000008,40.46,420.30283052,2,2,4,2,2,0,2,31,71,0,4,2,2,2,0,0,0,2,2,2,0.5862068965517241
"A-5996","5-[(E)-2-(6-methyl-2-oxo-2,3-dihydro-1H-1,3-benzodiazol-5-yl)diazen-1-yl]-1,3-diazinane-2,4,6-trione",-6.4891402338,"Cc1cc2c(cc1NNC1C(=O)NC(=O)NC1=O)=NC(=O)N=2","CC1=CC2=NC(=O)N=C2C=C1NNC1C(=O)NC(=O)NC1=O",-28.898828829856644,"Cc1cc2=NC(=O)N=c2cc1NNC1C(=O)NC(=O)NC1=O",-1.3253999999999995,141.12,302.0763528,10,4,3,4,6,6,10,22,32,0,3,0,1,3,0,1,2,0,0,1,0.16666666666666666
"A-5997","4-methyl-2,6-bis[(4-methylphenyl)amino]-5-{2-[2-(trifluoromethyl)phenyl]diazen-1-yl}pyridine-3-carbonitrile",-7.7171571443,"Cc1ccc(Nc2nc(Nc3ccc(C)cc3)c(N=Nc3ccccc3C(F)(F)F)c(C)c2C#N)cc1","Cc1ccc(Nc2nc(Nc3ccc(C)cc3)c(N=Nc3ccccc3C(F)(F)F)c(C)c2C#N)cc1",70.88155593289731,"Cc1ccc(Nc2nc(Nc3ccc(C)cc3)c(N=Nc3ccccc3C(F)(F)F)c(C)c2C#N)cc1",8.799940000000001,85.46000000000001,500.193629396,6,2,6,2,6,0,9,37,60,0,4,4,0,0,1,0,0,3,0,0,0.14285714285714285
"A-5998","C.i. Pigment Red 179",-7.7185099927,"CN1C(=O)c2ccc3c4ccc5c6c(ccc(c7ccc(c2c37)C1=O)c64)C(=O)N(C)C5=O","CN1C(=O)c2ccc3c4ccc5c6c(ccc(c7ccc(c2c37)C1=O)c64)C(=O)N(C)C5=O",7.844838826986837,"Cn1c(=O)c2ccc3c4ccc5c6c(ccc(c7ccc(c2c37)c1=O)c46)c(=O)n(C)c5=O",4.188800000000003,74.76,418.09535692799994,6,0,0,0,4,4,6,32,46,0,7,5,0,2,0,0,2,5,0,0,0.07692307692307693
"A-5999","2-(3-Methoxypropyl)-9(or 10)-methylbenzimidazo(2,1-b)benzo(lmn)(3,8)phenanthroline-1,3,6(2H)-trione",-6.7715099068,"COCCCN1C(=O)c2ccc3c(=O)n4c5ccc(C)cc5nc4c4ccc(c2c34)C1=O","COCCCN1C(=O)c2ccc3c4c(ccc(c24)C1=O)-c1nc2cc(C)ccc2n1C3=O",26.496358764253067,"COCCCn1c(=O)c2ccc3c4c(ccc(c24)c1=O)c1nc2cc(C)ccc2n1c3=O",3.7993200000000034,81.5,425.13755608800005,7,0,4,0,6,2,7,32,51,0,6,4,0,2,1,0,2,3,0,0,0.2
"A-6002","Fatty acids, C5-9, tetraesters with pentaerythritol",-7.94522478,"CCCCCCCOCC(COCCCCCCC)(COCCCCCCC)COCCCCCCC","CCCCCCCOCC(COCCCCCCC)(COCCCCCCC)COCCCCCCC",-5.610512372004306,"CCCCCCCOCC(COCCCCCCC)(COCCCCCCC)COCCCCCCC",9.9208,36.92,528.511760656,4,0,32,0,4,0,4,37,105,0,0,0,0,0,0,0,0,0,0,0,1
"A-6005","2,2'-biindole-3,3'(1H,1'H)-dione",-6.7197753001,"O=C1C(=C2Nc3ccccc3C2=O)Nc2ccccc21","O=C1C(=C2Nc3ccccc3C2=O)Nc2ccccc21",69.57943986217346,"O=C1C(=C2Nc3ccccc3C2=O)Nc2ccccc12",2.8148,58.2,262.07422756,4,2,0,2,4,0,4,20,30,0,4,2,0,2,0,0,2,2,0,0,0
"A-6006","propan-2-yl tetradecanoate",-6.733128222,"CCCCCCCCCCCCCC(=O)OC(C)C","CCCCCCCCCCCCCC(=O)OC(C)C",-11.452519472940658,"CCCCCCCCCCCCCC(=O)OC(C)C",5.639100000000005,26.3,270.255880328,2,0,13,0,2,0,2,19,53,0,0,0,0,0,0,0,0,0,0,0,0.9411764705882353
"A-6008","bis(nonylphenyl)amine",-7.9260469847,"CCCCCCCCCc1cccc(Nc2cccc(CCCCCCCCC)c2)c1","CCCCCCCCCc1cccc(Nc2cccc(CCCCCCCCC)c2)c1",35.013990542299325,"CCCCCCCCCc1cccc(Nc2cccc(CCCCCCCCC)c2)c1",10.016399999999996,12.03,421.370850504,1,1,18,1,1,0,1,31,78,0,2,2,0,0,0,0,0,2,0,0,0.6
"A-6010","ethyl 2-cyano-3,3-diphenylprop-2-enoate",-7.7440158853,"CCOC(=O)C(C#N)=C(c1ccccc1)c1ccccc1","CCOC(=O)C(C#N)=C(c1ccccc1)c1ccccc1",31.915780640773498,"CCOC(=O)C(=C(c1ccccc1)c1ccccc1)C#N",3.5751800000000022,50.09,277.11027872000005,3,0,4,0,3,0,3,21,36,0,2,2,0,0,0,0,0,2,0,0,0.1111111111111111
"A-6011","hexane-1,6-diyl bis[3-(3,5-di-tert-butyl-4-hydroxyphenyl)propanoate]",-8.1064832759,"CC(C)(C)c1cc(CCC(=O)OCCCCCCOC(=O)CCc2cc(C(C)(C)C)c(O)c(C(C)(C)C)c2)cc(C(C)(C)C)c1O","CC(C)(C)c1cc(CCC(=O)OCCCCCCOC(=O)CCc2cc(C(C)(C)C)c(O)c(C(C)(C)C)c2)cc(C(C)(C)C)c1O",15.626777819188202,"CC(C)(C)c1cc(CCC(=O)OCCCCCCOC(=O)CCc2cc(C(C)(C)C)c(O)c(C(C)(C)C)c2)cc(C(C)(C)C)c1O",9.5,93.06,638.4546397040001,6,2,13,2,6,0,6,46,108,0,2,2,0,0,0,0,0,2,0,0,0.65
"A-6012","tris(2,4-di-tert-butylphenyl) phosphite",-8.1118919859,"CC(C)(C)c1ccc(OP(Oc2ccc(C(C)(C)C)cc2C(C)(C)C)Oc2ccc(C(C)(C)C)cc2C(C)(C)C)c(C(C)(C)C)c1","CC(C)(C)c1ccc(OP(Oc2ccc(C(C)(C)C)cc2C(C)(C)C)Oc2ccc(C(C)(C)C)cc2C(C)(C)C)c(C(C)(C)C)c1",92.1759110093071,"CC(C)(C)c1ccc(OP(Oc2ccc(C(C)(C)C)cc2C(C)(C)C)Oc2ccc(C(C)(C)C)cc2C(C)(C)C)c(C(C)(C)C)c1",13.235299999999976,27.69,646.4514825059998,3,0,6,0,3,0,4,46,109,0,3,3,0,0,0,0,0,3,0,0,0.5714285714285714
"A-6014","4-[[2-methoxy-4-[(4-nitrophenyl)azo]phenyl]azo]phenol",-6.9639720065,"COc1cc(N=Nc2ccc([N+](=O)[O-])cc2)ccc1NN=C1C=CC(=O)C=C1","COc1cc(N=Nc2ccc([N+](=O)[O-])cc2)ccc1NN=C1C=CC(=O)C=C1",77.21332699650077,"COc1cc(N=Nc2ccc([N+](=O)[O-])cc2)ccc1NN=C1C=CC(=O)C=C1",4.481800000000003,118.55000000000001,377.11240396000005,9,1,6,1,8,0,9,28,43,0,3,2,0,1,0,0,0,2,0,1,0.05263157894736842
"A-6017","2-tert-butyl-4-[1-(5-tert-butyl-4-hydroxy-2-methylphenyl)butyl]-5-methylphenol",-7.9806713528,"CCCC(c1cc(C(C)(C)C)c(O)cc1C)c1cc(C(C)(C)C)c(O)cc1C","CCCC(c1cc(C(C)(C)C)c(O)cc1C)c1cc(C(C)(C)C)c(O)cc1C",56.24380190586539,"CCCC(c1cc(C(C)(C)C)c(O)cc1C)c1cc(C(C)(C)C)c(O)cc1C",7.241640000000008,40.46,382.287180456,2,2,4,2,2,0,2,28,66,0,2,2,0,0,0,0,0,2,0,0,0.5384615384615384
"A-6018","octadecyl 3-{[3-(octadecyloxy)-3-oxopropyl]sulfanyl}propanoate",-8.2324757883,"CCCCCCCCCCCCCCCCCCOC(=O)CCSCCC(=O)OCCCCCCCCCCCCCCCCCC","CCCCCCCCCCCCCCCCCCOC(=O)CCSCCC(=O)OCCCCCCCCCCCCCCCCCC",-36.45529509112147,"CCCCCCCCCCCCCCCCCCOC(=O)CCSCCC(=O)OCCCCCCCCCCCCCCCCCC",14.109199999999971,52.60000000000001,682.5933821039999,4,0,40,0,5,0,5,47,129,0,0,0,0,0,0,0,0,0,0,0,0.9523809523809523
"A-6020","1,4-bis(2-ethylhexyl) (2Z)-but-2-enedioate",-6.9758197173,"CCCCC(CC)COC(=O)C=CC(=O)OCC(CC)CCCC","CCCCC(CC)COC(=O)C=CC(=O)OCC(CC)CCCC",-21.24106093059135,"CCCCC(CC)COC(=O)C=CC(=O)OCC(CC)CCCC",5.061800000000005,52.60000000000001,340.261359632,4,0,14,0,4,0,4,24,60,2,0,0,0,0,0,0,0,0,0,0,0.8
"A-6023","2-[-N-(2-cyanoethyl)-4-[(p-nitrophenyl)azo]anilino]ethyl benzoate",-7.1697361359,"N#CCCN(CCOC(=O)c1ccccc1)c1ccc(N=Nc2ccc([N+](=O)[O-])cc2)cc1","N#CCCN(CCOC(=O)c1ccccc1)c1ccc(N=Nc2ccc([N+](=O)[O-])cc2)cc1",93.5503799238386,"N#CCCN(CCOC(=O)c1ccccc1)c1ccc(N=Nc2ccc([N+](=O)[O-])cc2)cc1",5.587280000000005,121.19,443.15935415200005,9,0,10,0,8,0,9,33,54,0,3,3,0,0,0,0,0,3,0,0,0.16666666666666666
"A-6025","N-{2-[(E)-2-(2,6-dicyano-4-nitrophenyl)diazen-1-yl]-5-(diethylamino)phenyl}acetamide",-8.1027530485,"CCN(CC)c1ccc(N=Nc2c(C#N)cc([N+](=O)[O-])cc2C#N)c(NC(C)=O)c1","CCN(CC)c1ccc(N=Nc2c(C#N)cc([N+](=O)[O-])cc2C#N)c(NC(C)=O)c1",47.440812529845836,"CCN(CC)c1ccc(N=Nc2c(C#N)cc([N+](=O)[O-])cc2C#N)c(NC(=O)C)c1",4.558160000000004,147.78,405.154937468,10,1,7,1,8,1,10,30,49,0,2,2,0,0,0,0,0,2,0,0,0.25
"A-6026","2-methylpropyl dodecanoate",-7.9318475776,"CCCCCCCCCCCC(=O)OCC(C)C","CCCCCCCCCCCC(=O)OCC(C)C",-10.276271672448996,"CCCCCCCCCCCC(=O)OCC(C)C",5.106500000000005,26.3,256.240230264,2,0,12,0,2,0,2,18,50,0,0,0,0,0,0,0,0,0,0,0,0.9375