"ID","Name","Solubility","SMILES Canonical","Smiles (Optimized Geometry)","Energy","Smiles","SlogP","TPSA","ExactMW","NumLipinskiHBA","NumLipinskiHBD","NumRotatableBonds","NumHBD","NumHBA","NumAmideBonds","NumHeteroAtoms","NumHeavyAtoms","NumAtoms","NumStereocenters","NumRings","NumAromaticRings","NumSaturatedRings","NumAliphaticRings","NumAromaticHeterocycles","NumSaturatedHeterocycles","NumAliphaticHeterocycles","NumAromaticCarbocycles","NumSaturatedCarbocycles","NumAliphaticCarbocycles","FractionCSP3"
"B-2911","terfenadine",-6.69,"CC(C)(C)c1ccc(C(O)CCC[NH+]2CCC(C(O)(c3ccccc3)c3ccccc3)CC2)cc1","CC(C)(C)c1ccc(C(O)CCC[NH+]2CCC(C(O)(c3ccccc3)c3ccccc3)CC2)cc1",61.643613586267975,"CC(C)(C)c1ccc(C(O)CCC[NH+]2CCC(C(O)(c3ccccc3)c3ccccc3)CC2)cc1",5.028700000000005,44.900000000000006,472.32100600408995,3,3,8,3,2,0,3,35,77,1,4,3,1,1,0,1,1,3,0,0,0.4375
"B-2912","azacyclohexadecan-2-one",-2.874,"O=C1CCCCCCCCCCCCCCN1","O=C1CCCCCCCCCCCCCCN1",2.984380814512579,"O=C1CCCCCCCCCCCCCCN1",4.187500000000003,29.1,239.22491454800002,2,1,0,1,1,1,2,17,46,0,1,0,1,1,0,1,1,0,0,0,0.9333333333333333
"B-2913","Vx agent",-0.95,"CCOP(C)(=O)SCC[NH+](C(C)C)C(C)C","CCOP(C)(=O)SCC[NH+](C(C)C)C(C)C",-34.84927278411027,"CCOP(=O)(C)SCC[NH+](C(C)C)C(C)C",2.2806999999999995,30.740000000000002,268.14946315409,3,1,8,1,3,0,5,16,43,1,0,0,0,0,0,0,0,0,0,0,1
"B-2914","hexanamide, n,n'-1,2-ethanediylbis-",-3.1079,"CCCCCC(=O)NCCNC(=O)CCCCC","CCCCCC(=O)NCCNC(=O)CCCCC",-20.232060830594378,"CCCCCC(=O)NCCNC(=O)CCCCC",2.3794000000000004,58.2,256.215078136,4,2,11,2,2,2,4,18,46,0,0,0,0,0,0,0,0,0,0,0,0.8571428571428571
"B-2915","benzeneacetic acid, .alpha.-(acetyloxy)-, (r)-",-1.2313,"CC(=O)O[C@@H](C(=O)[O-])c1ccccc1","CC(=O)O[C@@H](C(=O)[O-])c1ccccc1",62.075947163554964,"CC(=O)O[C@@H](C(=O)[O-])c1ccccc1",0.04069999999999929,66.43,193.05063234791,4,0,3,0,4,0,4,14,23,1,1,1,0,0,0,0,0,1,0,0,0.2
"B-2916","galatitol, 2,3:4,5-dianhydro-1,6-dideoxy-",-0.0575,"CC1OC1C1OC1C","CC1OC1C1OC1C",5.412715182578211,"CC1OC1C1OC1C",0.5609999999999998,25.06,114.06807956,2,0,1,0,2,0,2,8,18,4,2,0,2,2,0,2,2,0,0,0,1
"B-2917","1h-indole-2,3-dicarboxamide, 1-methyl-",-1.8184,"Cn1c(C(N)=O)c(C(N)=O)c2ccccc21","Cn1c(C(N)=O)c(C(N)=O)c2ccccc21",35.819534336047404,"Cn1c(C(=O)N)c(C(=O)N)c2ccccc12",0.37609999999999955,91.10999999999999,217.085126592,5,4,2,2,3,2,5,16,27,0,2,2,0,0,1,0,0,1,0,0,0.09090909090909091
"B-2918","1,3-benzenedicarboxylic acid, 4-sulfo-",0.6087,"O=C([O-])c1ccc(S(=O)(=O)[O-])c(C(=O)[O-])c1","O=C([O-])c1ccc(S(=O)(=O)[O-])c(C(=O)[O-])c1",181.14980027608755,"O=C([O-])c1ccc(S(=O)(=O)[O-])c(C(=O)[O-])c1",-2.682299999999999,137.46,242.96159417573003,7,0,3,0,7,0,8,16,19,0,1,1,0,0,0,0,0,1,0,0,0
"B-2919","1h-pyrazol-5-amine, 3,4-dimethyl-1-phenyl-",-1.6704,"Cc1nn(-c2ccccc2)c(N)c1C","Cc1nn(-c2ccccc2)c(N)c1C",34.12893052840638,"Cc1nn(c2ccccc2)c(N)c1C",2.07134,43.84,187.110947416,3,2,1,1,3,0,3,14,27,0,2,2,0,0,1,0,0,1,0,0,0.18181818181818182
"B-2921","hexazinone",-0.8834,"CN(C)c1nc(=O)n(C2CCCCC2)c(=O)n1C","CN(C)C1=NC(=O)N(C2CCCCC2)C(=O)N1C",-183.566718960159,"CN(C)c1nc(=O)n(C2CCCCC2)c(=O)n1C",1.7241,56.220000000000006,252.15862588,6,0,1,0,3,4,6,18,38,0,2,0,1,2,0,0,1,0,1,1,0.75
"B-2922","buminafos",-3.3105,"CCCC[NH2+]C1(P(=O)(OCCCC)OCCCC)CCCCC1","CCCC[NH2+]C1(P(=O)(OCCCC)OCCCC)CCCCC1",-22.091958017505203,"CCCC[NH2+]C1(P(=O)(OCCCC)OCCCC)CCCCC1",4.836800000000005,52.14,348.26620715809,4,2,13,1,3,0,5,23,62,0,1,0,1,1,0,0,0,0,1,1,1
"B-2923","buthiobate",-5.5712,"CCCCSC(=Nc1cccnc1)SCc1ccc(C(C)(C)C)cc1","CCCCSC(=Nc1cccnc1)SCc1ccc(C(C)(C)C)cc1",22.097882331857296,"CCCCSC(=Nc1cccnc1)SCc1ccc(C(C)(C)C)cc1",6.833300000000006,25.25,372.169390896,2,0,6,0,4,0,4,25,53,0,2,2,0,0,1,0,0,1,0,0,0.42857142857142855
"B-2925","3-(5-Tert-butyl-1,3,4-thiadiazol-2-yl)-1-(2,2-dimethoxyethyl)-1-methylurea",-1.8678,"COC(CN(C)C(=O)Nc1nnc(C(C)(C)C)s1)OC","COC(CN(C)C(=O)Nc1nnc(C(C)(C)C)s1)OC",-20.214120917681875,"COC(CN(C)C(=O)Nc1nnc(C(C)(C)C)s1)OC",1.9182000000000001,76.58,302.141261564,7,1,5,1,6,2,8,20,42,0,1,1,0,0,1,0,0,0,0,0,0.75
"B-2926","cimetidine",-1.4298,"CN=C(NC#N)NCCSCc1nc[nH]c1C","CN=C(NC#N)NCCSCc1nc[nH]c1C",-33.306406141788564,"CN=C(NC#N)NCCSCc1nc[nH]c1C",0.5973999999999997,88.88999999999999,252.11571551199998,6,3,5,3,4,0,7,17,33,0,1,1,0,0,1,0,0,0,0,0,0.5
"B-2928","milbemectin a3",-5.7787,"CC1=CCC2C[C@@H](C[C@]3(CC[C@H](C)C(C)O3)O2)OC(=O)[C@@H]2C=C(C)[C@@H](O)[C@H]3OCC(=CC=C[C@H](C)C1)[C@@]23O","CC1=CCC2C[C@@H](C[C@]3(CC[C@H](C)C(C)O3)O2)OC(=O)[C@@H]2C=C(C)[C@@H](O)[C@H]3OCC(=CC=C[C@H](C)C1)[C@@]23O",40.07500628522672,"CC1=CCC2C[C@@H](C[C@]3(CC[C@H](C)C(C)O3)O2)OC(=O)[C@@H]2C=C(C)[C@@H](O)[C@H]3OCC(=CC=C[C@H](C)C1)[C@@]23O",4.534200000000005,94.45000000000002,528.308703748,7,2,0,2,7,0,7,38,82,10,5,0,3,5,0,3,4,0,0,1,0.7096774193548387
"B-2929","milbemectin a4",-4.8772,"CCC1O[C@]2(CCC1C)C[C@@H]1C[C@@H](CC=C(C)CC(C)C=CC=C3CO[C@@H]4[C@H](O)C(C)=C[C@@H](C(=O)O1)[C@]34O)O2","CCC1O[C@]2(CCC1C)C[C@@H]1C[C@@H](CC=C(C)CC(C)C=CC=C3CO[C@@H]4[C@H](O)C(C)=C[C@@H](C(=O)O1)[C@]34O)O2",43.614018045545976,"CCC1O[C@]2(CCC1C)C[C@@H]1C[C@@H](CC=C(C)CC(C)C=CC=C3CO[C@@H]4[C@H](O)C(=C[C@@H](C(=O)O1)[C@]34O)C)O2",4.924300000000007,94.45,542.3243538119999,7,2,1,2,7,0,7,39,85,10,5,0,3,5,0,3,4,0,0,1,0.71875
"B-2933","pipemidic acid",-2.974,"CCn1cc(C(=O)[O-])c(=O)c2cnc(N3CC[NH2+]CC3)nc21","CCN1C=C(C(=O)[O-])C(=O)c2cnc(N3CC[NH2+]CC3)nc21",-114.68797014529386,"CCn1cc(C(=O)[O-])c(=O)c2cnc(N3CC[NH2+]CC3)nc12",-2.4835999999999974,106.07000000000001,303.133139404,8,2,3,1,7,0,8,22,39,0,3,1,1,2,1,1,2,0,0,0,0.42857142857142855
"B-2936","cyclohexylmercapto-acetic acid",-1.3381,"O=C([O-])CSC1CCCCC1","O=C([O-])CSC1CCCCC1",51.672205348781986,"O=C([O-])CSC1CCCCC1",0.8021999999999996,40.129999999999995,173.06417423591,2,0,3,0,3,0,3,11,24,0,1,0,1,1,0,0,0,0,1,1,0.875
"B-2937","5-ethyl-5-methyl-2,4-oxazolidinedione",0.0203,"CCC1(C)OC(=O)[N-]C1=O","CCC1(C)OC(=O)[N-]C1=O",3.036103533119867,"CCC1(C)OC(=O)[N-]C1=O",1.2056,57.470000000000006,142.05096669591,4,0,1,0,3,2,4,10,18,1,1,0,1,1,0,1,1,0,0,0,0.6666666666666666
"B-2938","naproanilide",-5.5894,"CC(Oc1ccc2ccccc2c1)C(=O)Nc1ccccc1","CC(Oc1ccc2ccccc2c1)C(=O)Nc1ccccc1",69.69147756149111,"CC(Oc1ccc2ccccc2c1)C(=O)Nc1ccccc1",4.245800000000003,38.33,291.12592878400005,3,1,4,1,2,1,3,22,39,1,3,3,0,0,0,0,0,3,0,0,0.10526315789473684
"B-2962","prosulfocarb",-4.2798,"CCCN(CCC)C(=O)SCc1ccccc1","CCCN(CCC)C(=O)SCc1ccccc1",-38.80293489346072,"CCCN(CCC)C(=O)SCc1ccccc1",4.161800000000003,20.310000000000002,251.134385292,2,0,6,0,2,1,3,17,38,0,1,1,0,0,0,0,0,1,0,0,0.5
"B-2964","hydrazinecarboxamide, 1-(2-hydroxyhexyl)-2-[(5-n",-3.5716,"CCCCC(O)CN(N=Cc1ccc([N+](=O)[O-])o1)C(N)=O","CCCCC(O)CN(N=Cc1ccc([N+](=O)[O-])o1)C(N)=O",92.28024284611101,"CCCCC(O)CN(N=Cc1ccc([N+](=O)[O-])o1)C(=O)N",1.4535,135.2,298.12771967599997,9,3,8,2,6,2,9,21,39,1,1,1,0,0,1,0,0,0,0,0,0.5
"B-2965","pyrimethanil",-3.2166,"Cc1cc(C)nc(Nc2ccccc2)n1","Cc1cc(C)nc(Nc2ccccc2)n1",5.674252003996281,"Cc1cc(C)nc(Nc2ccccc2)n1",2.837040000000001,37.81,199.110947416,3,1,2,1,3,0,3,15,28,0,2,2,0,0,1,0,0,1,0,0,0.16666666666666666
"B-2969","ibuproxam",-3.044,"CC(C)Cc1ccc(C(C)C(=O)NO)cc1","CC(C)Cc1ccc(C(C)C(=O)NO)cc1",34.614385909818004,"CC(C)Cc1ccc(C(C)C(=O)NO)cc1",2.4939999999999998,49.33,221.141578848,3,2,4,2,2,1,3,16,35,1,1,1,0,0,0,0,0,1,0,0,0.46153846153846156
"B-2971","mefluidide",-3.2365,"CC(=O)Nc1cc(NS(=O)(=O)C(F)(F)F)c(C)cc1C","CC(=O)Nc1cc(NS(=O)(=O)C(F)(F)F)c(C)cc1C",127.45532786980266,"CC(=O)Nc1cc(NS(=O)(=O)C(F)(F)F)c(C)cc1C",2.52334,75.27000000000001,310.059897936,5,2,3,2,3,1,9,20,33,0,1,1,0,0,0,0,0,1,0,0,0.36363636363636365
"B-2972","24nh2pyrimidine,5(35-meo-4-oetome)benzyl",-2.101,"COCCOc1c(OC)cc(Cc2cnc(N)nc2N)cc1OC","COCCOc1c(OC)cc(Cc2cnc(N)nc2N)cc1OC",8.772939729314098,"COCCOc1c(OC)cc(Cc2cnc(N)nc2N)cc1OC",1.2742,114.74,334.164105184,8,4,8,2,8,0,8,24,46,0,2,2,0,0,1,0,0,1,0,0,0.375
"B-2976","benzamide, n-(2-amino-1,1-dimethyl-2-oxoethyl)-",-1.6154,"CC(C)(NC(=O)c1ccccc1)C(N)=O","CC(C)(NC(=O)c1ccccc1)C(N)=O",25.979944371947852,"CC(C)(NC(=O)c1ccccc1)C(=O)N",0.6803000000000001,72.19,206.105527688,4,3,3,2,2,2,4,15,29,0,1,1,0,0,0,0,0,1,0,0,0.2727272727272727
"B-2978","empenthrin",-6.3931,"C#CC(OC(=O)C1C(C=C(C)C)C1(C)C)C(C)=CCC","C#CC(OC(=O)C1C(C=C(C)C)C1(C)C)C(C)=CCC",-17.275072265593053,"C#CC(OC(=O)C1C(C=C(C)C)C1(C)C)C(=CCC)C",4.126100000000004,26.3,274.193280072,2,0,5,0,2,0,2,20,46,3,1,0,1,1,0,0,0,0,1,1,0.6111111111111112
"B-2979","pentanamide, n,n'-1,2-ethanediylbis-",-1.8145,"CCCCC(=O)NCCNC(=O)CCCC","CCCCC(=O)NCCNC(=O)CCCC",-20.02067696157331,"CCCCC(=O)NCCNC(=O)CCCC",1.5991999999999993,58.2,228.183778008,4,2,9,2,2,2,4,16,40,0,0,0,0,0,0,0,0,0,0,0,0.8333333333333334
"B-2981","2-pyrrolidinone, 1-nitroso-",0.0523,"O=NN1CCCC1=O","O=NN1CCCC1=O",-6.015375682328553,"O=NN1CCCC1=O",0.29020000000000007,49.74,114.042927432,4,0,1,0,3,1,4,8,14,0,1,0,1,1,0,1,1,0,0,0,0.75
"B-2982","d-alloisoleucine, n-acetyl-",-0.5912,"CC[C@H](C)[C@@H](NC(C)=O)C(=O)[O-]","CC[C@H](C)[C@@H](NC(C)=O)C(=O)[O-]",35.98263875822908,"CC[C@H](C)[C@@H](NC(=O)C)C(=O)[O-]",-0.7128999999999996,69.23,172.09791688791,4,1,4,1,3,1,4,12,26,2,0,0,0,0,0,0,0,0,0,0,0.75
"B-2983","1,3-benzenediol, 5-(methylthio)-",-1.7957,"CSc1cc(O)cc(O)c1","CSc1cc(O)cc(O)c1",14.347461663792,"CSc1cc(O)cc(O)c1",1.8196999999999997,40.46,156.024500496,2,2,1,2,3,0,3,10,18,0,1,1,0,0,0,0,0,1,0,0,0.14285714285714285
"B-2984","1,3-benzenediol, 5-(butylthio)-",-2.5191,"CCCCSc1cc(O)cc(O)c1","CCCCSc1cc(O)cc(O)c1",14.143207213342817,"CCCCSc1cc(O)cc(O)c1",2.990000000000002,40.46,198.071450688,2,2,4,2,3,0,3,13,27,0,1,1,0,0,0,0,0,1,0,0,0.4
"B-2986","bitertanol",-4.8292,"CC(C)(C)C(O)C(Oc1ccc(-c2ccccc2)cc1)n1cncn1","CC(C)(C)C(O)C(Oc1ccc(-c2ccccc2)cc1)n1cncn1",64.29320600103493,"CC(C)(C)C(O)C(Oc1ccc(c2ccccc2)cc1)n1cncn1",3.929700000000002,60.17,337.1790269760001,5,1,5,1,5,0,5,25,48,2,3,3,0,0,1,0,0,2,0,0,0.3
"B-2989","propentofylline",-0.9811,"CCCn1cnc2c1c(=O)n(CCCCC(C)=O)c(=O)n2C","CCCn1cnc2c1C(=O)N(CCCCC(C)=O)C(=O)N2C",-131.3084781752538,"CCCn1cnc2c1c(=O)n(CCCCC(=O)C)c(=O)n2C",2.0644,75.51,306.169190564,7,0,7,0,5,3,7,22,44,0,2,1,0,1,1,0,1,0,0,0,0.6
"B-2990","praziquantel",-2.8927,"O=C(C1CCCCC1)N1CC(=O)N2CCc3ccccc3C2C1","O=C(C1CCCCC1)N1CC(=O)N2CCc3ccccc3C2C1",72.60362271553264,"O=C(C1CCCCC1)N1CC(=O)N2CCc3ccccc3C2C1",2.5349000000000004,40.620000000000005,312.183778008,4,0,1,0,2,2,4,23,47,1,4,1,2,3,0,1,2,1,1,1,0.5789473684210527
"B-2992","dimethipin",-1.66,"CC1=C(C)S(=O)(=O)CCS1(=O)=O","CC1=C(C)S(=O)(=O)CCS1(=O)=O",-37.040286835339536,"CC1=C(C)S(=O)(=O)CCS1(=O)=O",0.08099999999999996,68.28,210.0020508,4,0,0,0,4,0,6,12,22,0,1,0,0,1,0,0,1,0,0,0,0.6666666666666666
"B-2994","phosphoric acid, ethyl dipropyl ester",-0.9802,"CCCOP(=O)(OCC)OCCC","CCCOP(=O)(OCC)OCCC",-84.25343970138478,"CCCOP(=O)(OCC)OCCC",2.9842000000000013,44.760000000000005,210.102095718,4,0,8,0,4,0,5,13,32,0,0,0,0,0,0,0,0,0,0,0,1
"B-2996","buthidazole",-1.8773,"CN1CC(O)N(c2nnc(C(C)(C)C)s2)C1=O","CN1CC(O)N(c2nnc(C(C)(C)C)s2)C1=O",-55.21482753431536,"CN1CC(O)N(c2nnc(C(C)(C)C)s2)C1=O",1.0257999999999998,69.56,256.099396752,6,1,1,1,5,2,7,17,33,1,2,1,1,1,1,1,1,0,0,0,0.7
"B-3004","mepronil",-4.3265,"Cc1ccccc1C(=O)Nc1cccc(OC(C)C)c1","Cc1ccccc1C(=O)Nc1cccc(OC(C)C)c1",56.6218024896817,"Cc1ccccc1C(=O)Nc1cccc(OC(C)C)c1",4.034520000000002,38.33,269.141578848,3,1,4,1,2,1,3,20,39,0,2,2,0,0,0,0,0,2,0,0,0.23529411764705882
"B-3005","isouron",-2.4272,"CN(C)C(=O)Nc1cc(C(C)(C)C)on1","CN(C)C(=O)Nc1cc(C(C)(C)C)on1",-31.218879205479496,"CN(C)C(=O)Nc1cc(C(C)(C)C)on1",2.0656,58.370000000000005,211.132076784,5,1,1,1,3,2,5,15,32,0,1,1,0,0,1,0,0,0,0,0,0.6
"B-3006","sufentanil",-3.7064,"CCC(=O)N(c1ccccc1)C1(COC)CC[NH+](CCc2cccs2)CC1","CCC(=O)N(c1ccccc1)C1(COC)CC[NH+](CCc2cccs2)CC1",19.339172213820174,"CCC(=O)N(c1ccccc1)C1(COC)CC[NH+](CCc2cccs2)CC1",2.7977000000000007,33.980000000000004,387.21007565209,4,1,8,1,3,1,5,27,58,0,3,2,1,1,1,1,1,1,0,0,0.5
"B-3008","2-heptanol, 4-methyl-",-1.8779,"CCCC(C)CC(C)O","CCCC(C)CC(C)O",7.397983702778615,"CCCC(C)CC(C)O",2.1935000000000007,20.23,130.135765196,1,1,4,1,1,0,1,9,27,2,0,0,0,0,0,0,0,0,0,0,1
"B-3009","flurprimidol",-3.4377,"CC(C)C(O)(c1ccc(OC(F)(F)F)cc1)c1cncnc1","CC(C)C(O)(c1ccc(OC(F)(F)F)cc1)c1cncnc1",-9.850296723644089,"CC(C)C(O)(c1ccc(OC(F)(F)F)cc1)c1cncnc1",3.267100000000002,55.24,312.1085623800001,4,1,4,1,4,0,7,22,37,1,2,2,0,0,1,0,0,1,0,0,0.3333333333333333
"B-3010","benzenepropanal, .alpha.-oxo-",-2.1707,"O=CC(=O)Cc1ccccc1","O=CC(=O)Cc1ccccc1",38.31715948961953,"O=CC(=O)Cc1ccccc1",0.9970999999999999,34.14,148.052429496,2,0,3,0,2,0,2,11,19,0,1,1,0,0,0,0,0,1,0,0,0.1111111111111111
"B-3014","1(2h)-pyrimidinecarboxamide, 5-fluoro-3,4-dichlo",-1.6184,"O=C(Nc1ccccc1)n1cc(F)c(=O)[nH]c1=O","O=C1NC(=O)N(C(=O)Nc2ccccc2)C=C1F",-24.94791512150068,"O=c1[nH]c(=O)n(C(=O)Nc2ccccc2)cc1F",1.5812,78.51,249.054969336,6,2,1,2,3,5,7,18,26,0,2,1,0,1,0,0,1,1,0,0,0
"B-3016","t-butylphenyl diphenyl phosphate",-5.0774,"CC(C)(C)c1ccc(OP(=O)(Oc2ccccc2)Oc2ccccc2)cc1","CC(C)(C)c1ccc(OP(=O)(Oc2ccccc2)Oc2ccccc2)cc1",38.924892390751616,"CC(C)(C)c1ccc(OP(=O)(Oc2ccccc2)Oc2ccccc2)cc1",6.629000000000006,44.760000000000005,382.133395846,4,0,6,0,4,0,5,27,50,0,3,3,0,0,0,0,0,3,0,0,0.18181818181818182
"B-3018","isomethiozin",-4.4288,"CSc1nnc(C(C)(C)C)c(=O)n1N=CC(C)C","CSC1=NN=C(C(C)(C)C)C(=O)N1N=CC(C)C",91.75518195295614,"CSc1nnc(C(C)(C)C)c(=O)n1N=CC(C)C",2.591500000000001,57.39,268.13578226,5,0,2,0,5,1,6,18,38,0,1,0,0,1,0,0,1,0,0,0,0.6666666666666666
"B-3021","1(3h)-isobenzofuranone, 6-amino-",-2.0414,"Nc1ccc2c(c1)C(=O)OC2","Nc1ccc2c(c1)C(=O)OC2",11.236320597477555,"Nc1ccc2c(c1)C(=O)OC2",0.9392,52.32000000000001,149.047678464,3,2,0,1,3,0,3,11,18,0,2,1,0,1,0,0,1,1,0,0,0.125
"B-3022","pyroquilon",-1.6365,"O=C1CCc2cccc3c2N1CC3","O=C1CCc2cccc3c2N1CC3",4.576711931654108,"O=C1CCc2cccc3c2N1CC3",1.5219,20.310000000000002,173.084063972,2,0,0,0,1,1,2,13,24,0,3,1,0,2,0,0,2,1,0,0,0.36363636363636365
"B-3023","phenisopham",-5.0574,"CCN(C(=O)Oc1cccc(NC(=O)OC(C)C)c1)c1ccccc1","CCN(C(=O)Oc1cccc(NC(=O)OC(C)C)c1)c1ccccc1",10.64242987305152,"CCN(C(=O)Oc1cccc(NC(=O)OC(C)C)c1)c1ccccc1",4.668800000000004,67.87,342.157957184,6,1,5,1,4,2,6,25,47,0,2,2,0,0,0,0,0,2,0,0,0.2631578947368421
"B-3024","fluotrimazole",-8.403,"FC(F)(F)c1cccc(C(c2ccccc2)(c2ccccc2)n2cncn2)c1","FC(F)(F)c1cccc(C(c2ccccc2)(c2ccccc2)n2cncn2)c1",94.41968784898306,"FC(F)(F)c1cccc(C(c2ccccc2)(c2ccccc2)n2cncn2)c1",5.137100000000005,30.71,379.1296321720001,3,0,4,0,3,0,6,28,44,0,4,4,0,0,1,0,0,3,0,0,0.09090909090909091
"B-3025","acetamide, n-[2-(benzoyloxy)ethyl]-n-methyl-",-0.8494,"CC(=O)N(C)CCOC(=O)c1ccccc1","CC(=O)N(C)CCOC(=O)c1ccccc1",-2.8316550000510943,"CC(=O)N(C)CCOC(=O)c1ccccc1",1.3216999999999999,46.61,221.10519334,4,0,4,0,3,1,4,16,31,0,1,1,0,0,0,0,0,1,0,0,0.3333333333333333
"B-3026","furalaxyl",-3.1173,"COC(=O)C(C)N(C(=O)c1ccco1)c1c(C)cccc1C","COC(=O)C(C)N(C(=O)c1ccco1)c1c(C)cccc1C",51.97369371545911,"COC(=O)C(C)N(C(=O)c1ccco1)c1c(C)cccc1C",3.1047400000000014,59.75,301.131408088,5,0,4,0,4,1,5,22,41,1,2,2,0,0,1,0,0,1,0,0,0.29411764705882354
"B-3030","benzenamine, 4-methyl-2-[(4-methylphenyl)azo]-",-3.9031,"Cc1ccc(N=Nc2cc(C)ccc2N)cc1","Cc1ccc(N=Nc2cc(C)ccc2N)cc1",58.15430877104375,"Cc1ccc(N=Nc2cc(C)ccc2N)cc1",4.301040000000003,50.739999999999995,225.12659748,3,2,2,1,3,0,3,17,32,0,2,2,0,0,0,0,0,2,0,0,0.14285714285714285
"B-3031","2,4(3h,5h)-pyrimidinedione, 6-amino-5,5-diethyl-",-1.3967,"CCC1(CC)C(=O)NC(=O)[NH+]=C1N","CCC1(CC)C(=O)NC(=O)[NH+]=C1N",-64.10569701781083,"CCC1(CC)C(=O)NC(=O)[NH+]=C1N",-1.5195999999999978,86.16,184.10805310809,5,4,2,3,3,3,5,13,27,0,1,0,0,1,0,0,1,0,0,0,0.625
"B-3032","1(3h)-isobenzofuranone, 3-methyl-6-nitro-",-2.6157,"CC1OC(=O)c2cc([N+](=O)[O-])ccc21","CC1OC(=O)c2cc([N+](=O)[O-])ccc21",20.499975028723966,"CC1OC(=O)c2cc([N+](=O)[O-])ccc12",1.8262,69.44,193.037507704,5,0,1,0,4,0,5,14,21,1,2,1,0,1,0,0,1,1,0,0,0.2222222222222222
"B-3039","phosphoric acid, dimethyl propyl ester",0.4733,"CCCOP(=O)(OC)OC","CCCOP(=O)(OC)OC",-83.57411437556391,"CCCOP(=O)(OC)OC",1.8138999999999998,44.760000000000005,168.055145526,4,0,5,0,4,0,5,10,23,0,0,0,0,0,0,0,0,0,0,0,1
"B-3042","5-methyl-hex-3-enoic acid",-1.1487,"CC(C)C=CCC(=O)[O-]","CC(C)C=CCC(=O)[O-]",26.34014059105175,"CC(C)C=CCC(=O)[O-]",0.3386,40.129999999999995,127.07645317191,2,0,3,0,2,0,2,9,20,0,0,0,0,0,0,0,0,0,0,0,0.5714285714285714
"B-3043","thiodicarb",-4.0055,"CSC(C)=NOC(=O)N(C)SN(C)C(=O)ON=C(C)SC","CSC(C)=NOC(=O)N(C)SN(C)C(=O)ON=C(C)SC",33.3939023346609,"CSC(=NOC(=O)N(C)SN(C)C(=O)ON=C(C)SC)C",3.079200000000002,83.8,354.04901805599997,8,0,4,0,9,2,11,21,39,0,0,0,0,0,0,0,0,0,0,0,0.6
"B-3044","fluridone",-4.4384,"Cn1cc(-c2ccccc2)c(=O)c(-c2cccc(C(F)(F)F)c2)c1","CN1C=C(c2ccccc2)C(=O)C(c2cccc(C(F)(F)F)c2)=C1",45.28499440775403,"Cn1cc(c2ccccc2)c(=O)c(c2cccc(C(F)(F)F)c2)c1",4.601900000000003,20.310000000000002,329.102748728,2,0,2,0,2,0,5,24,38,0,3,2,0,1,0,0,1,2,0,0,0.10526315789473684
"B-3045","2-propenoic acid, 3-(2-ethoxyphenyl)-, (e)-",-3.3248,"CCOc1ccccc1C=CC(=O)[O-]","CCOc1ccccc1C=CC(=O)[O-]",35.2506178332138,"CCOc1ccccc1C=CC(=O)[O-]",0.8483999999999998,49.36,191.07136779191,3,0,4,0,3,0,3,14,25,0,1,1,0,0,0,0,0,1,0,0,0.18181818181818182
"B-3049","propane, 2,2-bis(methylsulfonyl)-",-1.4504,"CC(C)(S(C)(=O)=O)S(C)(=O)=O","CC(C)(S(C)(=O)=O)S(C)(=O)=O",-59.25480563469858,"CC(C)(S(=O)(=O)C)S(=O)(=O)C",-0.1882999999999999,68.28,200.017700864,4,0,2,0,4,0,6,11,23,0,0,0,0,0,0,0,0,0,0,0,1
"B-3060","benzeneacetic acid, .alpha.-(ethylthio)-",-1.5686,"CCSC(C(=O)[O-])c1ccccc1","CCSC(C(=O)[O-])c1ccccc1",79.28578422538101,"CCSC(C(=O)[O-])c1ccccc1",1.2307,40.129999999999995,195.04852417191,2,0,4,0,3,0,3,13,24,1,1,1,0,0,0,0,0,1,0,0,0.3
"B-3062","1h-imidazole-4-sulfonic acid",0.1304,"O=S(=O)([O-])c1c[nH]cn1","O=S(=O)([O-])c1c[nH]cn1",92.27285053733505,"O=S(=O)([O-])c1c[nH]cn1",-0.6861999999999997,85.88000000000001,146.98698653591,5,1,1,1,4,0,6,9,12,0,1,1,0,0,1,0,0,0,0,0,0
"B-3067","propanoic acid, 2-(1-oxopropoxy)-, methyl ester",-0.8622,"CCC(=O)OC(C)C(=O)OC","CCC(=O)OC(C)C(=O)OC",-4.273687611625954,"CCC(=O)OC(C)C(=O)OC",0.5010999999999999,52.60000000000001,160.073558864,4,0,3,0,4,0,4,11,23,1,0,0,0,0,0,0,0,0,0,0,0.7142857142857143
"B-3068","dimepiperate",-4.1196,"CC(C)(SC(=O)N1CCCCC1)c1ccccc1","CC(C)(SC(=O)N1CCCCC1)c1ccccc1",-22.655722504218712,"CC(C)(SC(=O)N1CCCCC1)c1ccccc1",4.260800000000003,20.310000000000002,263.134385292,2,0,2,0,2,1,3,18,39,0,2,1,1,1,0,1,1,1,0,0,0.5333333333333333
"B-3069","1h-imidazole, 2-(2-methylpropyl)-",-1.0488,"CC(C)Cc1[nH]cc[nH+]1","CC(C)Cc1[nH]cc[nH+]1",6.9149644182792365,"CC(C)Cc1[nH]cc[nH+]1",1.0272999999999999,29.93,125.10732483608999,2,2,2,1,0,0,2,9,22,0,1,1,0,0,1,0,0,0,0,0,0.5714285714285714
"B-3070","tifatol",-3.163,"Cc1ccc(N=c2sccn2C)c(C)c1","Cc1ccc(N=C2SC=CN2C)c(C)c1",-3.8969496518680042,"Cc1ccc(N=c2sccn2C)c(C)c1",3.4407400000000017,15.6,218.087769448,2,0,1,0,2,0,3,15,29,0,2,1,0,1,0,0,1,1,0,0,0.25
"B-3071","carbamimidothioic acid, trimethyl-, methyl ester",-0.4401,"C[NH+]=C(SC)N(C)C","C[NH+]=C(SC)N(C)C",-37.6891532301069,"C[NH+]=C(SC)N(C)C",-1.0225999999999988,17.21,133.07939583609,2,1,0,1,1,0,3,8,21,0,0,0,0,0,0,0,0,0,0,0,0.8
"B-3073","benzamide, 2,5-dihydroxy-n-(2-hydroxyethyl)-",-0.5436,"O=C(NCCO)c1cc(O)ccc1O","O=C(NCCO)c1cc(O)ccc1O",10.787215451281885,"O=C(NCCO)c1cc(O)ccc1O",-0.18009999999999993,89.79,197.068807832,5,4,3,4,4,1,5,14,25,0,1,1,0,0,0,0,0,1,0,0,0.2222222222222222
"B-3074","1,3,6-naphthalenetrisulfonic acid, 4-amino-",-0.3188,"Nc1c(S(=O)(=O)[O-])cc(S(=O)(=O)[O-])c2ccc(S(=O)(=O)[O-])cc12","Nc1c(S(=O)(=O)[O-])cc(S(=O)(=O)[O-])c2ccc(S(=O)(=O)[O-])cc12",151.07869957444706,"Nc1c(S(=O)(=O)[O-])cc(S(=O)(=O)[O-])c2ccc(S(=O)(=O)[O-])cc12",-0.865699999999999,197.61999999999998,379.92211451172994,10,2,3,1,10,0,13,23,29,0,2,2,0,0,0,0,0,2,0,0,0
"B-3077","urea, n-butyl-n-phenyl",-1.2971,"CCCCN(C(N)=O)c1ccccc1","CCCCN(C(N)=O)c1ccccc1",8.320774361289295,"CCCCN(C(=O)N)c1ccccc1",2.3718000000000004,46.33,192.126263132,3,2,4,1,1,2,3,14,30,0,1,1,0,0,0,0,0,1,0,0,0.36363636363636365