"ID","Name","Solubility","SMILES Canonical","Smiles (Optimized Geometry)","Energy","Smiles","SlogP","TPSA","ExactMW","NumLipinskiHBA","NumLipinskiHBD","NumRotatableBonds","NumHBD","NumHBA","NumAmideBonds","NumHeteroAtoms","NumHeavyAtoms","NumAtoms","NumStereocenters","NumRings","NumAromaticRings","NumSaturatedRings","NumAliphaticRings","NumAromaticHeterocycles","NumSaturatedHeterocycles","NumAliphaticHeterocycles","NumAromaticCarbocycles","NumSaturatedCarbocycles","NumAliphaticCarbocycles","FractionCSP3"
"A-1986","dodecanal",-5.0614595476,"CCCCCCCCCCCC=O","CCCCCCCCCCCC=O",-0.9519998636830836,"CCCCCCCCCCCC=O",4.106200000000003,17.07,184.182715388,1,0,10,0,1,0,1,13,37,0,0,0,0,0,0,0,0,0,0,0,0.9166666666666666
"A-1991","2-ethyl-2-methyl-1,3-dihydroperimidine",-3.2477605654,"CCC1(C)Nc2cccc3cccc(c23)N1","CCC1(C)Nc2cccc3cccc(c23)N1",34.61819532543851,"CCC1(C)Nc2cccc3cccc(c23)N1",3.8034000000000017,24.06,212.131348512,2,2,1,2,2,0,2,16,32,0,3,2,0,1,0,0,1,2,0,0,0.2857142857142857
"A-1994","2-(2-{2-[(2-ethylhexanoyl)oxy]ethoxy}ethoxy)ethyl 2-ethylhexanoate",-5.4201521344,"CCCCC(CC)C(=O)OCCOCCOCCOC(=O)C(CC)CCCC","CCCCC(CC)C(=O)OCCOCCOCCOC(=O)C(CC)CCCC",20.779898887166166,"CCCCC(CC)C(=O)OCCOCCOCCOC(=O)C(CC)CCCC",4.538800000000004,71.06,402.298139064,6,0,19,0,6,0,6,28,70,2,0,0,0,0,0,0,0,0,0,0,0.9090909090909091
"A-1997","2-(1-amino-9,10-dioxo-9,10-dihydroanthracen-2-yl)-5H,10H-anthra[2,3-d][1,3]oxazole-5,10-dione",-5.4964129822,"Nc1c(-c2nc3cc4c(cc3o2)C(=O)c2ccccc2C4=O)ccc2c1C(=O)c1ccccc1C2=O","Nc1c(-c2nc3cc4c(cc3o2)C(=O)c2ccccc2C4=O)ccc2c1C(=O)c1ccccc1C2=O",62.597772998148585,"Nc1c(c2nc3cc4c(cc3o2)C(=O)c2ccccc2C4=O)ccc2c1C(=O)c1ccccc1C2=O",4.627800000000003,120.32999999999998,470.0902715479999,7,2,1,1,7,0,7,36,50,0,7,5,0,2,1,0,0,4,0,2,0
"A-1998","N-(4-ethoxyphenyl)-3-hydroxy-2-naphthamide",-5.3115405454,"CCOc1ccc(NC(=O)c2cc3ccccc3cc2O)cc1","CCOc1ccc(NC(=O)c2cc3ccccc3cc2O)cc1",52.386674979070115,"CCOc1ccc(NC(=O)c2cc3ccccc3cc2O)cc1",4.196400000000002,58.56,307.120843404,4,2,4,2,3,1,4,23,40,0,3,3,0,0,0,0,0,3,0,0,0.10526315789473684
"A-2000","Vat brown 3",-5.647161854,"O=C(Nc1cccc2c(=O)c3c(ccc4c5cc(NC(=O)c6ccccc6)c6c(=O)c7ccccc7c(=O)c6c5[nH]c43)c(=O)c12)c1ccccc1","O=C(Nc1cccc2c1C(=O)c1ccc3c([nH]c4c5c(c(NC(=O)c6ccccc6)cc43)C(=O)c3ccccc3C5=O)c1C2=O)c1ccccc1",105.54744792816396,"O=C(Nc1cccc2c1C(=O)c1ccc3c([nH]c4c5c(c(NC(=O)c6ccccc6)cc34)C(=O)c3ccccc3C5=O)c1C2=O)c1ccccc1",7.376500000000005,142.26999999999998,665.158685456,9,3,4,3,6,2,9,51,74,0,9,7,0,2,1,0,0,6,0,2,0
"A-2001","1-(4-methoxyphenyl)-2-[(3-methoxyphenyl)sulfanyl]ethan-1-one",-5.284725265,"COc1ccc(C(=O)CSc2cccc(OC)c2)cc1","COc1ccc(C(=O)CSc2cccc(OC)c2)cc1",58.555809605426504,"COc1ccc(C(=O)CSc2cccc(OC)c2)cc1",3.6788000000000025,35.53,288.082015372,3,0,6,0,4,0,4,20,36,0,2,2,0,0,0,0,0,2,0,0,0.1875
"A-2004","Anthra[2,1,9-mna]naphtho[2,3-h]acridine-5,10,15(16H)-trione",-5.506567843,"O=C1c2ccccc2C(=O)c2c1ccc1c2[nH]c2ccc3c4ccccc4c(=O)c4ccc1c2c43","O=C1c2ccccc2C(=O)c2c1ccc1c2Nc2ccc3c4c(ccc-1c24)C(=O)c1ccccc1-3",97.13973526219635,"O=C1c2ccccc2C(=O)c2c1ccc1c2[nH]c2ccc3c4c(ccc1c24)c(=O)c1ccccc31",6.550600000000003,63.24,449.10519334,4,1,0,1,4,0,4,35,50,0,8,5,0,3,0,0,1,5,0,2,0
"A-2005","2,2'-oxybis(5,5-dimethyl-1,3,2-dioxaphosphinane) 2,2'-disulfide",-5.3933833945,"CC1(C)COP(=S)(OP2(=S)OCC(C)(C)CO2)OC1","CC1(C)COP(=S)(OP2(=S)OCC(C)(C)CO2)OC1",-220.057888392837,"CC1(C)COP(=S)(OP2(=S)OCC(C)(C)CO2)OC1",3.5980000000000025,46.150000000000006,346.02273899999994,5,0,2,0,7,0,9,19,39,0,2,0,2,2,0,2,2,0,0,0,1
"A-2007","1-methyl-4-(propan-2-yl)cyclohex-1-ene",-5.0103439368,"CC1=CCC(C(C)C)CC1","CC1=CCC(C(C)C)CC1",10.739453886104325,"CC1=CCC(C(C)C)CC1",3.3888000000000025,0,138.140850576,0,0,1,0,0,0,0,10,28,1,1,0,0,1,0,0,0,0,0,1,0.8
"A-2008","6-({bis[(5-carboxypentyl)amino]-1,3,5-triazin-2-yl}amino)hexanoic acid",-2.5423613079,"O=C([O-])CCCCCNc1nc(NCCCCCC(=O)[O-])nc(NCCCCCC(=O)[O-])n1","O=C([O-])CCCCCNc1nc(NCCCCCC(=O)[O-])nc(NCCCCCC(=O)[O-])n1",-133.92065949159786,"O=C([O-])CCCCCNc1nc(NCCCCCC(=O)[O-])nc(NCCCCCC(=O)[O-])n1",-0.9617999999999978,195.15000000000003,465.24780351573,12,3,21,3,12,0,12,33,66,0,1,1,0,0,1,0,0,0,0,0,0.7142857142857143
"A-2009","2-methyloctyl prop-2-enoate",-5.1999126975,"C=CC(=O)OCCCCCCCC(C)C","C=CC(=O)OCCCCCCCC(C)C",-5.6538426835171745,"C=CC(=O)OCCCCCCCC(C)C",3.712200000000003,26.3,212.177630008,2,0,9,0,2,0,2,15,39,0,0,0,0,0,0,0,0,0,0,0,0.7692307692307693
"A-2011","2-methylundecanal",-5.151636178,"CCCCCCCCCC(C)C=O","CCCCCCCCCC(C)C=O",0.6158653445386622,"CCCCCCCCCC(C)C=O",3.962100000000003,17.07,184.182715388,1,0,9,0,1,0,1,13,37,1,0,0,0,0,0,0,0,0,0,0,0.9166666666666666
"A-2012","4-{bis[4-(dimethylamino)phenyl]methyl}-N,N-dimethylaniline",-5.4583984127,"CN(C)c1ccc(C(c2ccc(N(C)C)cc2)c2ccc(N(C)C)cc2)cc1","CN(C)c1ccc(C(c2ccc(N(C)C)cc2)c2ccc(N(C)C)cc2)cc1",78.43194158854566,"CN(C)c1ccc(C(c2ccc(N(C)C)cc2)c2ccc(N(C)C)cc2)cc1",5.064800000000005,9.72,373.25179799200004,3,0,6,0,3,0,3,28,59,0,3,3,0,0,0,0,0,3,0,0,0.28
"A-2016","1,8-bis(phenylsulfanyl)-9,10-dihydroanthracene-9,10-dione",-5.5173350431,"O=C1c2cccc(Sc3ccccc3)c2C(=O)c2c(Sc3ccccc3)cccc21","O=C1c2cccc(Sc3ccccc3)c2C(=O)c2c(Sc3ccccc3)cccc21",72.53643541804816,"O=C1c2cccc(Sc3ccccc3)c2C(=O)c2c(Sc3ccccc3)cccc12",6.764400000000005,34.14,424.059171752,2,0,4,0,4,0,4,30,46,0,5,4,0,1,0,0,0,4,0,1,0
"A-2019","4,4'-cyclohexane-1,1-diylbis(2-methylphenol)",-5.3715223063,"Cc1cc(C2(c3ccc(O)c(C)c3)CCCCC2)ccc1O","Cc1cc(C2(c3ccc(O)c(C)c3)CCCCC2)ccc1O",46.917800401467225,"Cc1cc(C2(c3ccc(O)c(C)c3)CCCCC2)ccc1O",4.964840000000004,40.46,296.177630008,2,2,2,2,2,0,2,22,46,0,3,2,1,1,0,0,0,2,1,1,0.4
"A-2025","1,4-bis(2-ethylhexyl) (2E)-but-2-enedioate",-5.4565752567,"CCCCC(CC)COC(=O)C=CC(=O)OCC(CC)CCCC","CCCCC(CC)COC(=O)C=CC(=O)OCC(CC)CCCC",-21.24106093059135,"CCCCC(CC)COC(=O)C=CC(=O)OCC(CC)CCCC",5.061800000000005,52.60000000000001,340.261359632,4,0,14,0,4,0,4,24,60,2,0,0,0,0,0,0,0,0,0,0,0.8
"A-2026","2,2-dimethylpropane-1,3-diyl dibenzoate",-5.4227803586,"CC(C)(COC(=O)c1ccccc1)COC(=O)c1ccccc1","CC(C)(COC(=O)c1ccccc1)COC(=O)c1ccccc1",19.24306336015735,"CC(C)(COC(=O)c1ccccc1)COC(=O)c1ccccc1",3.726600000000003,52.6,312.13615912,4,0,6,0,4,0,4,23,43,0,2,2,0,0,0,0,0,2,0,0,0.2631578947368421
"A-2030","(ethoxymethoxy)cyclododecane",-5.3353199677,"CCOCOC1CCCCCCCCCCC1","CCOCOC1CCCCCCCCCCC1",-7.782993532855131,"CCOCOC1CCCCCCCCCCC1",4.670300000000005,18.46,242.2245802,2,0,4,0,2,0,2,17,47,0,1,0,1,1,0,0,0,0,1,1,1
"A-2033","bis(3-methylbutyl) phthalate",-5.4448989106,"CC(C)CCOC(=O)c1ccccc1C(=O)OCCC(C)C","CC(C)CCOC(=O)c1ccccc1C(=O)OCCC(C)C",-0.8604731635942322,"CC(C)CCOC(=O)c1ccccc1C(=O)OCCC(C)C",4.092400000000004,52.60000000000001,306.183109312,4,0,8,0,4,0,4,22,48,0,1,1,0,0,0,0,0,1,0,0,0.5555555555555556
"A-2036","tetraphenyl m-phenylene bis(phosphate)",-5.7380720068,"O=P(Oc1ccccc1)(Oc1ccccc1)Oc1cccc(OP(=O)(Oc2ccccc2)Oc2ccccc2)c1","O=P(Oc1ccccc1)(Oc1ccccc1)Oc1cccc(OP(=O)(Oc2ccccc2)Oc2ccccc2)c1",51.55055331664688,"O=P(Oc1ccccc1)(Oc1ccccc1)Oc1cccc(OP(=O)(Oc2ccccc2)Oc2ccccc2)c1",8.9764,89.52000000000001,574.0946409879999,8,0,12,0,8,0,10,40,64,0,5,5,0,0,0,0,0,5,0,0,0
"A-2037","9H-carbazole",-5.2104276195,"c1ccc2c(c1)[nH]c1ccccc12","c1ccc2c(c1)[nH]c1ccccc12",27.33869185204767,"c1ccc2c(c1)[nH]c1ccccc21",3.3211000000000013,15.79,167.073499288,1,1,0,1,0,0,1,13,22,0,3,3,0,0,1,0,0,2,0,0,0
"A-2039","1,2-dicyclohexyl benzene-1,2-dicarboxylate",-5.5126055421,"O=C(OC1CCCCC1)c1ccccc1C(=O)OC1CCCCC1","O=C(OC1CCCCC1)c1ccccc1C(=O)OC1CCCCC1",10.302225253909981,"O=C(OC1CCCCC1)c1ccccc1C(=O)OC1CCCCC1",4.665600000000004,52.60000000000001,330.183109312,4,0,4,0,4,0,4,24,50,0,3,1,2,2,0,0,0,1,2,2,0.6
"A-2041","Prokan",-5.5668107327,"CC(=O)OC1(C(C)=O)CCC2C3CCC4=CC(=O)CCC4(C)C3CCC21C","CC(=O)OC1(C(C)=O)CCC2C3CCC4=CC(=O)CCC4(C)C3CCC21C",72.16822507161798,"CC(=O)OC1(C(=O)C)CCC2C3CCC4=CC(=O)CCC4(C)C3CCC12C",4.409200000000004,60.440000000000005,372.230059504,4,0,2,0,4,0,4,27,59,6,4,0,3,4,0,0,0,0,3,4,0.782608695652174
"A-2042","(9Z)-N,N-bis(2-hydroxyethyl)octadec-9-enamide",-5.567720212,"CCCCCCCCC=CCCCCCCCC(=O)N(CCO)CCO","CCCCCCCCC=CCCCCCCCC(=O)N(CCO)CCO",3.851234536149436,"CCCCCCCCC=CCCCCCCCC(=O)N(CCO)CCO",4.837100000000006,60.77000000000001,369.32429423599996,4,2,19,2,3,1,4,26,69,0,0,0,0,0,0,0,0,0,0,0,0.8636363636363636
"A-2043","1,3-diethyl 2-({4-[3-ethoxy-2-(ethoxycarbonyl)-3-oxoprop-1-en-1-yl]phenyl}methylidene)propanedioate",-5.6216352692,"CCOC(=O)C(=Cc1ccc(C=C(C(=O)OCC)C(=O)OCC)cc1)C(=O)OCC","CCOC(=O)C(=Cc1ccc(C=C(C(=O)OCC)C(=O)OCC)cc1)C(=O)OCC",-39.974929978435604,"CCOC(=O)C(=Cc1ccc(C=C(C(=O)OCC)C(=O)OCC)cc1)C(=O)OCC",2.705800000000001,105.20000000000003,418.1627677919999,8,0,10,0,8,0,8,30,56,0,1,1,0,0,0,0,0,1,0,0,0.36363636363636365
"A-2045","2-phenylethyl (2E)-3-phenylprop-2-enoate",-5.4019396274,"O=C(C=Cc1ccccc1)OCCc1ccccc1","O=C(C=Cc1ccccc1)OCCc1ccccc1",29.21719014156193,"O=C(C=Cc1ccccc1)OCCc1ccccc1",3.4857000000000022,26.3,252.115029752,2,0,5,0,2,0,2,19,35,0,2,2,0,0,0,0,0,2,0,0,0.11764705882352941
"A-2046","N-(2-hydroxyethyl)octadecanamide",-5.5152815814,"CCCCCCCCCCCCCCCCCC(=O)NCCO","CCCCCCCCCCCCCCCCCC(=O)NCCO",-5.360401945323355,"CCCCCCCCCCCCCCCCCC(=O)NCCO",5.356400000000005,49.33,327.313729552,3,2,18,2,2,1,3,23,64,0,0,0,0,0,0,0,0,0,0,0,0.95
"A-2049","bis(1,2,2,6,6-pentamethylpiperidin-4-yl) 2-butyl-2-[(3,5-di-tert-butyl-4-hydroxyphenyl)methyl]propanedioate",-5.8357203688,"CCCCC(Cc1cc(C(C)(C)C)c(O)c(C(C)(C)C)c1)(C(=O)OC1CC(C)(C)[NH+](C)C(C)(C)C1)C(=O)OC1CC(C)(C)[NH+](C)C(C)(C)C1","CCCCC(Cc1cc(C(C)(C)C)c(O)c(C(C)(C)C)c1)(C(=O)OC1CC(C)(C)[NH+](C)C(C)(C)C1)C(=O)OC1CC(C)(C)[NH+](C)C(C)(C)C1",18.42112443624307,"CCCCC(Cc1cc(C(C)(C)C)c(O)c(C(C)(C)C)c1)(C(=O)OC1CC(C)(C)[NH+](C)C(C)(C)C1)C(=O)OC1CC(C)(C)[NH+](C)C(C)(C)C1",6.261300000000007,81.71,686.55867630818,7,3,9,3,5,0,7,49,123,0,3,1,2,2,0,2,2,1,0,0,0.8095238095238095
"A-2055","Cedryl acetate",-5.4266410391,"CC(=O)OC1(C)CCC23CC1C(C)(C)[C@@H]2CC[C@H]3C","CC(=O)OC1(C)CCC23CC1C(C)(C)[C@@H]2CC[C@H]3C",45.15047172938284,"CC(=O)OC1(C)CCC23CC1C(C)(C)[C@@H]2CC[C@H]3C",4.180600000000004,26.3,264.208930136,2,0,1,0,2,0,2,19,47,5,3,0,3,3,0,0,0,0,3,3,0.9411764705882353
"A-2057","12-hydroxyoctadecanoic acid",-5.4883700889,"CCCCCCC(O)CCCCCCCCCCC(=O)[O-]","CCCCCCC(O)CCCCCCCCCCC(=O)[O-]",6.4660436026732615,"CCCCCCC(O)CCCCCCCCCCC(=O)[O-]",3.968600000000003,60.36,299.25916855991,3,1,16,1,3,0,3,21,56,1,0,0,0,0,0,0,0,0,0,0,0.9444444444444444
"A-2060","Bisbenzimidazo[2,1-b:1',2'-j]benzo[lmn][3,8]phenanthroline-6,9-dione",-5.6330558482,"O=c1c2ccc3c(=O)n4c5ccccc5nc4c4ccc(c2c34)c2nc3ccccc3n12","O=C1c2ccc3c4c(ccc(c24)-c2nc4ccccc4n21)-c1nc2ccccc2n1C3=O",87.03184627761368,"O=c1c2ccc3c4c(ccc(c24)c2nc4ccccc4n12)c1nc2ccccc2n1c3=O",4.877000000000003,69.78,412.09602562400005,6,0,0,0,6,0,6,32,44,0,8,6,0,2,2,0,2,4,0,0,0
"A-2063","4-{2-[4-(cyanooxy)phenyl]propan-2-yl}phenyl cyanate",-5.4695583775,"CC(C)(c1ccc(OC#N)cc1)c1ccc(OC#N)cc1","CC(C)(c1ccc(OC#N)cc1)c1ccc(OC#N)cc1",47.18971742137952,"CC(C)(c1ccc(OC#N)cc1)c1ccc(OC#N)cc1",3.732260000000003,66.03999999999999,278.105527688,4,0,4,0,4,0,4,21,35,0,2,2,0,0,0,0,0,2,0,0,0.17647058823529413
"A-2065","lauronitrile",-5.2899699473,"CCCCCCCCCCCC#N","CCCCCCCCCCCC#N",-0.8766491465975921,"CCCCCCCCCCCC#N",4.430880000000004,23.79,181.183049736,1,0,9,0,1,0,1,13,36,0,0,0,0,0,0,0,0,0,0,0,0.9166666666666666
"A-2077","1-N,4-N-bis(5-methylhexan-2-yl)benzene-1,4-diamine",-5.5751336546,"CC(C)CCC(C)Nc1ccc(NC(C)CCC(C)C)cc1","CC(C)CCC(C)Nc1ccc(NC(C)CCC(C)C)cc1",37.8308118367794,"CC(C)CCC(C)Nc1ccc(NC(C)CCC(C)C)cc1",6.159800000000006,24.06,304.287849152,2,2,10,2,2,0,2,22,58,2,1,1,0,0,0,0,0,1,0,0,0.7
"A-2079","2-cyclododecylpropan-1-ol",-5.4517941085,"CC(CO)C1CCCCCCCCCCC1","CC(CO)C1CCCCCCCCCCC1",16.25348502027126,"CC(CO)C1CCCCCCCCCCC1",4.535700000000005,20.23,226.22966558000002,1,1,2,1,1,0,1,16,46,1,1,0,1,1,0,0,0,0,1,1,1
"A-2083","methyl undec-10-enoate",-5.3975153521,"C=CCCCCCCCCC(=O)OC","C=CCCCCCCCCC(=O)OC",-11.896721273121793,"C=CCCCCCCCCC(=O)OC",3.4662000000000015,26.3,198.161979944,2,0,9,0,2,0,2,14,36,0,0,0,0,0,0,0,0,0,0,0,0.75
"A-2086","Estrone",-5.5511481213,"C[C@]12CC[C@@H]3c4ccc(O)cc4CC[C@H]3[C@@H]1CCC2=O","C[C@]12CC[C@@H]3c4ccc(O)cc4CC[C@H]3[C@@H]1CCC2=O",50.04342117907503,"C[C@]12CC[C@@H]3c4ccc(O)cc4CC[C@H]3[C@@H]1CCC2=O",3.817400000000002,37.3,270.161979944,2,1,0,1,2,0,2,20,42,4,4,1,2,3,0,0,0,1,2,3,0.6111111111111112
"A-2087","2,6-di-tert-butyl-4-methylphenol",-5.462311288,"Cc1cc(C(C)(C)C)c(O)c(C(C)(C)C)c1","Cc1cc(C(C)(C)C)c(O)c(C(C)(C)C)c1",24.169576966593283,"Cc1cc(C(C)(C)C)c(O)c(C(C)(C)C)c1",4.295620000000004,20.23,220.182715388,1,1,0,1,1,0,1,16,40,0,1,1,0,0,0,0,0,1,0,0,0.6
"A-2089","2,4,6-tris(butan-2-yl)phenol",-5.5497933448,"CCC(C)c1cc(C(C)CC)c(O)c(C(C)CC)c1","CCC(C)c1cc(C(C)CC)c(O)c(C(C)CC)c1",24.04387168548574,"CCC(C)c1cc(C(C)CC)c(O)c(C(C)CC)c1",5.932700000000007,20.23,262.22966558,1,1,6,1,1,0,1,19,49,3,1,1,0,0,0,0,0,1,0,0,0.6666666666666666
"A-2091","N-phenylnaphthalen-2-amine",-5.4959148461,"c1ccc(Nc2ccc3ccccc3c2)cc1","c1ccc(Nc2ccc3ccccc3c2)cc1",45.67771708646521,"c1ccc(Nc2ccc3ccccc3c2)cc1",4.583400000000002,12.03,219.104799416,1,1,2,1,1,0,1,17,30,0,3,3,0,0,0,0,0,3,0,0,0
"A-2095","2,6,10-trimethylundec-9-enal",-5.496890424,"CC(C)=CCCC(C)CCCC(C)C=O","CC(C)=CCCC(C)CCCC(C)C=O",8.424546334627774,"CC(=CCCC(C)CCCC(C)C=O)C",4.374200000000004,17.07,210.198365452,1,0,8,0,1,0,1,15,41,2,0,0,0,0,0,0,0,0,0,0,0.7857142857142857
"A-2096","N-(1,4-dimethylpentyl)-N'-phenylbenzene-1,4-diamine",-5.624837561,"CC(C)CCC(C)Nc1ccc(Nc2ccccc2)cc1","CC(C)CCC(C)Nc1ccc(Nc2ccccc2)cc1",43.352358611815276,"CC(C)CCC(C)Nc1ccc(Nc2ccccc2)cc1",5.666800000000005,24.06,282.209598832,2,2,7,2,2,0,2,21,47,1,2,2,0,0,0,0,0,2,0,0,0.3684210526315789
"A-2097","(5Z)-cyclohexadec-5-en-1-one",-5.5607322784,"O=C1CCCC=CCCCCCCCCCC1","O=C1CCCC=CCCCCCCCCCC1",5.410367363689888,"O=C1CCCC=CCCCCCCCCCC1",5.196600000000005,17.07,236.21401551600002,1,0,0,0,1,0,1,17,45,0,1,0,0,1,0,0,0,0,0,1,0.8125
"A-2098","17-hydroxy-3-methoxyestra-2,5(10)-diene-17-carbonitrile",-5.6832424476,"COC1=CCC2=C(CCC3C2CCC2(C)C3CCC2(O)C#N)C1","COC1=CCC2=C(CCC3C2CCC2(C)C3CCC2(O)C#N)C1",79.84106298414143,"COC1=CCC2=C(CCC3C2CCC2(C)C3CCC2(O)C#N)C1",4.098080000000003,53.25,313.20417910400005,3,1,1,1,3,0,3,23,50,5,4,0,2,4,0,0,0,0,2,4,0.75
"A-2099","Dodecahydro-3,8,8,11a-tetramethyl-5H-3,5a-epoxynaphth(2,1-c)oxepin",-5.6453848366,"CC12CCC3C(CCC4C(C)(C)CCCC43C)(CO1)O2","CC12CCC3C(CCC4C(C)(C)CCCC43C)(CO1)O2",61.305545721887654,"CC12CCC3C(CCC4C(C)(C)CCCC34C)(CO1)O2",4.524600000000004,18.46,278.2245802,2,0,0,0,2,0,2,20,50,5,4,0,4,4,0,2,2,0,2,2,1
"A-2100","1-methyl-4-(propan-2-yl)cyclohexane",-5.3545731075,"CC1CCC(C(C)C)CC1","CC1CCC(C(C)C)CC1",14.963236597414276,"CC1CCC(C(C)C)CC1",3.468700000000003,0,140.15650064,0,0,1,0,0,0,0,10,30,0,1,0,1,1,0,0,0,0,1,1,1
"A-2106","2-[(2-hydroxyethyl)(octadecyl)amino]ethan-1-ol",-5.7752741917,"CCCCCCCCCCCCCCCCCC[NH+](CCO)CCO","CCCCCCCCCCCCCCCCCC[NH+](CCO)CCO",17.694554742017317,"CCCCCCCCCCCCCCCCCC[NH+](CCO)CCO",4.117400000000003,44.900000000000006,358.36795619608995,3,3,21,3,2,0,3,25,73,0,0,0,0,0,0,0,0,0,0,0,1
"A-2110","(10Z)-1-oxacycloheptadec-10-en-2-one",-5.6293975546,"O=C1CCCCCCCC=CCCCCCCO1","O=C1CCCCCCCC=CCCCCCCO1",2.186558727872682,"O=C1CCCCCCCC=CCCCCCCO1",4.780600000000004,26.3,252.208930136,2,0,0,0,2,0,2,18,46,0,1,0,0,1,0,0,1,0,0,0,0.8125
"A-2117","1,1':3',1''-terphenyl-2'-ol",-5.6839101049,"Oc1c(-c2ccccc2)cccc1-c1ccccc1","Oc1c(-c2ccccc2)cccc1-c1ccccc1",57.73984354278099,"Oc1c(c2ccccc2)cccc1c1ccccc1",4.726200000000003,20.23,246.104465068,1,1,2,1,1,0,1,19,33,0,3,3,0,0,0,0,0,3,0,0,0
"A-2119","2-{[3,3-bis(3-tert-butyl-4-hydroxyphenyl)butanoyl]oxy}ethyl 3,3-bis(3-tert-butyl-4-hydroxyphenyl)butanoate",-6.2014353624,"CC(C)(C)c1cc(C(C)(CC(=O)OCCOC(=O)CC(C)(c2ccc(O)c(C(C)(C)C)c2)c2ccc(O)c(C(C)(C)C)c2)c2ccc(O)c(C(C)(C)C)c2)ccc1O","CC(C)(C)c1cc(C(C)(CC(=O)OCCOC(=O)CC(C)(c2ccc(O)c(C(C)(C)C)c2)c2ccc(O)c(C(C)(C)C)c2)c2ccc(O)c(C(C)(C)C)c2)ccc1O",68.29194070768601,"CC(C)(C)c1cc(C(C)(CC(=O)OCCOC(=O)CC(C)(c2ccc(O)c(C(C)(C)C)c2)c2ccc(O)c(C(C)(C)C)c2)c2ccc(O)c(C(C)(C)C)c2)ccc1O",10.87779999999999,133.52,794.475769072,8,4,11,4,8,0,8,58,124,0,4,4,0,0,0,0,0,4,0,0,0.48
"A-2122","(1-methylethyl)-1,1'-biphenyl",-5.6098577743,"CC(C)c1ccc(-c2ccccc2)cc1","CC(C)c1ccc(-c2ccccc2)cc1",34.33853789488589,"CC(C)c1ccc(c2ccccc2)cc1",4.477000000000004,0,196.125200512,0,0,2,0,0,0,0,15,31,0,2,2,0,0,0,0,0,2,0,0,0.2
"A-2126","4-[(4-amino-3,5-diethylphenyl)methyl]-2,6-diethylaniline",-5.8485879471,"CCc1cc(Cc2cc(CC)c(N)c(CC)c2)cc(CC)c1N","CCc1cc(Cc2cc(CC)c(N)c(CC)c2)cc(CC)c1N",26.493390976235787,"CCc1cc(Cc2cc(CC)c(N)c(CC)c2)cc(CC)c1N",4.691400000000003,52.04,310.24089896,2,4,6,2,2,0,2,23,53,0,2,2,0,0,0,0,0,2,0,0,0.42857142857142855
"A-2129","2-[4-(2-{4-[2-(prop-2-enoyloxy)ethoxy]phenyl}propan-2-yl)phenoxy]ethyl prop-2-enoate",-5.999481603,"C=CC(=O)OCCOc1ccc(C(C)(C)c2ccc(OCCOC(=O)C=C)cc2)cc1","C=CC(=O)OCCOc1ccc(C(C)(C)c2ccc(OCCOC(=O)C=C)cc2)cc1",47.51845266511166,"C=CC(=O)OCCOc1ccc(C(C)(C)c2ccc(OCCOC(=O)C=C)cc2)cc1",4.228500000000004,71.06,424.18858861599995,6,0,12,0,6,0,6,31,59,0,2,2,0,0,0,0,0,2,0,0,0.28
"A-2131","Benzenamine, N-phenyl-, styrenated",-5.9641687617,"CC(c1ccccc1)c1ccc(Nc2ccc(C(C)c3ccccc3)cc2)cc1","CC(c1ccccc1)c1ccc(Nc2ccc(C(C)c3ccccc3)cc2)cc1",70.60628839119897,"CC(c1ccccc1)c1ccc(Nc2ccc(C(C)c3ccccc3)cc2)cc1",7.733800000000007,12.03,377.214349864,1,1,6,1,1,0,1,29,56,2,4,4,0,0,0,0,0,4,0,0,0.14285714285714285
"A-2136","2-ethylhexyl benzoate",-5.767784581,"CCCCC(CC)COC(=O)c1ccccc1","CCCCC(CC)COC(=O)c1ccccc1",13.838635496985454,"CCCCC(CC)COC(=O)c1ccccc1",4.059800000000004,26.3,234.161979944,2,0,7,0,2,0,2,17,39,1,1,1,0,0,0,0,0,1,0,0,0.5333333333333333
"A-2137","3,3,5-trimethylcyclohexyl 2-hydroxybenzoate",-5.8168194218,"CC1CC(OC(=O)c2ccccc2O)CC(C)(C)C1","CC1CC(OC(=O)c2ccccc2O)CC(C)(C)C1",19.114744320113502,"CC1CC(OC(=O)c2ccccc2O)CC(C)(C)C1",3.7638000000000025,46.53,262.156894564,3,1,2,1,3,0,3,19,41,2,2,1,1,1,0,0,0,1,1,1,0.5625
"A-2142","3,7-dimethyloct-6-en-1-yl (2E)-2-methylbut-2-enoate",-5.7917926889,"CC=C(C)C(=O)OCCC(C)CCC=C(C)C","CC=C(C)C(=O)OCCC(C)CCC=C(C)C",-4.255888394151843,"CC=C(C)C(=O)OCCC(C)CCC=C(C)C",4.268400000000004,26.3,238.193280072,2,0,7,0,2,0,2,17,43,1,0,0,0,0,0,0,0,0,0,0,0.6666666666666666
"A-2143","3,3,4,4,5,5,6,6,7,7,8,8,8-tridecafluorooctyl 2-methylprop-2-enoate",-6.0581688457,"C=C(C)C(=O)OCCC(F)(F)C(F)(F)C(F)(F)C(F)(F)C(F)(F)C(F)(F)F","C=C(C)C(=O)OCCC(F)(F)C(F)(F)C(F)(F)C(F)(F)C(F)(F)C(F)(F)F",29.3183785484985,"C=C(C)C(=O)OCCC(F)(F)C(F)(F)C(F)(F)C(F)(F)C(F)(F)C(F)(F)F",5.234600000000002,26.3,432.03949638800003,2,0,8,0,2,0,15,27,36,0,0,0,0,0,0,0,0,0,0,0,0.75
"A-2145","1-(4-{[4-(2,5-dioxo-2,5-dihydro-1H-pyrrol-1-yl)phenyl]methyl}phenyl)-2,5-dihydro-1H-pyrrole-2,5-dione",-5.9980085438,"O=C1C=CC(=O)N1c1ccc(Cc2ccc(N3C(=O)C=CC3=O)cc2)cc1","O=C1C=CC(=O)N1c1ccc(Cc2ccc(N3C(=O)C=CC3=O)cc2)cc1",-21.09959216858807,"O=C1C=CC(=O)N1c1ccc(Cc2ccc(N3C(=O)C=CC3=O)cc2)cc1",2.1361999999999997,74.76,358.095356928,6,0,4,0,4,4,6,27,41,0,4,2,0,2,0,0,2,2,0,0,0.047619047619047616
"A-2147","tetradecan-1-ol",-5.787142557,"CCCCCCCCCCCCCCO","CCCCCCCCCCCCCCO",-1.1631908811721612,"CCCCCCCCCCCCCCO",4.679800000000005,20.23,214.22966558000002,1,1,12,1,1,0,1,15,45,0,0,0,0,0,0,0,0,0,0,0,1
"A-2149","diphenyl 4-(propan-2-yl)phenyl phosphate phenyl bis[4-(propan-2-yl)phenyl] phosphate triphenyl phosphate tris[4-(propan-2-yl)phenyl] phosphate",-6.1371343954,"CC(C)c1ccc(OP(=O)(Oc2ccc(C(C)C)cc2)Oc2ccc(C(C)C)cc2)cc1","CC(C)c1ccc(OP(=O)(Oc2ccc(C(C)C)cc2)Oc2ccc(C(C)C)cc2)cc1",42.23012645114429,"CC(C)c1ccc(OP(=O)(Oc2ccc(C(C)C)cc2)Oc2ccc(C(C)C)cc2)cc1",8.701700000000004,44.760000000000005,452.211646166,4,0,9,0,4,0,5,32,65,0,3,3,0,0,0,0,0,3,0,0,0.3333333333333333
"A-2151","N-(1,3-benzothiazol-2-ylsulfanyl)cyclohexanamine",-5.9171426801,"c1ccc2sc(SNC3CCCCC3)nc2c1","c1ccc2sc(SNC3CCCCC3)nc2c1",31.513409547581304,"c1ccc2sc(SNC3CCCCC3)nc2c1",4.2257000000000025,24.92,264.075490512,2,1,3,1,4,0,4,17,33,0,3,2,1,1,1,0,0,1,1,1,0.46153846153846156