"ID","Name","Solubility","SMILES Canonical","Smiles (Optimized Geometry)","Energy","Smiles","SlogP","TPSA","ExactMW","NumLipinskiHBA","NumLipinskiHBD","NumRotatableBonds","NumHBD","NumHBA","NumAmideBonds","NumHeteroAtoms","NumHeavyAtoms","NumAtoms","NumStereocenters","NumRings","NumAromaticRings","NumSaturatedRings","NumAliphaticRings","NumAromaticHeterocycles","NumSaturatedHeterocycles","NumAliphaticHeterocycles","NumAromaticCarbocycles","NumSaturatedCarbocycles","NumAliphaticCarbocycles","FractionCSP3"
"B-3079","fenothiocarb",-3.9266,"CN(C)C(=O)SCCCCOc1ccccc1","CN(C)C(=O)SCCCCOc1ccccc1",-29.381419037558835,"CN(C)C(=O)SCCCCOc1ccccc1",3.2604000000000024,29.540000000000003,253.113649848,3,0,6,0,3,1,4,17,36,0,1,1,0,0,0,0,0,1,0,0,0.46153846153846156
"B-3082","benzeneacetonitrile, alpha-((cyanomethoxy)imino)",-3.2899,"N#CCON=C(C#N)c1ccccc1","N#CCON=C(C#N)c1ccccc1",76.71062002509717,"N#CCON=C(C#N)c1ccccc1",1.4544599999999999,69.16999999999999,185.058911844,4,0,3,0,4,0,4,14,21,0,1,1,0,0,0,0,0,1,0,0,0.1
"B-3088","diofenolan",-4.7874,"CC[C@H]1OC[C@@H](COc2ccc(Oc3ccccc3)cc2)O1","CC[C@H]1OC[C@@H](COc2ccc(Oc3ccccc3)cc2)O1",63.37039641388943,"CC[C@H]1OC[C@@H](COc2ccc(Oc3ccccc3)cc2)O1",4.009200000000003,36.92,300.13615911999995,4,0,6,0,4,0,4,22,42,2,3,2,1,1,0,1,1,2,0,0,0.3333333333333333
"B-3089","1h-purine-2,6-dione, 3,7-dihydro-3,7-dimethyl-1-",-1.2082,"CCCn1c(=O)c2c(ncn2C)n(C)c1=O","CCCN1C(=O)c2c(ncn2C)N(C)C1=O",-131.87000173813234,"CCCn1c(=O)c2c(ncn2C)n(C)c1=O",0.8421000000000001,58.440000000000005,222.111675688,6,0,2,0,4,3,6,16,30,0,2,1,0,1,1,0,1,0,0,0,0.5
"B-3092","1-piperazinecarboxylic acid, 4,4'-methylenebis-,",-0.8443,"CCOC(=O)N1CCN(C[NH+]2CCN(C(=O)OCC)CC2)CC1","CCOC(=O)N1CCN(C[NH+]2CCN(C(=O)OCC)CC2)CC1",-56.97852084693874,"CCOC(=O)N1CCN(C[NH+]2CCN(C(=O)OCC)CC2)CC1",-0.9249999999999956,66.76,329.21833182809,8,1,4,1,5,2,8,23,52,0,2,0,2,2,0,2,2,0,0,0,0.8666666666666667
"B-3093","1(2h)-pyrimidinecarboxamide, n-butyl-5-fluoro-3,",-2.4464,"CCCCNC(=O)n1cc(F)c(=O)[nH]c1=O","CCCCNC(=O)N1C=C(F)C(=O)NC1=O",-57.719178455593266,"CCCCNC(=O)n1cc(F)c(=O)[nH]c1=O",0.8588,78.51,229.086269464,6,2,3,2,3,5,7,16,28,0,1,0,0,1,0,0,1,0,0,0,0.4444444444444444
"B-3096","glycoursodeoxycholic acid",-5.5225,"C[C@H](CCC(=O)NCC(=O)[O-])[C@H]1CCC2C3C(CC[C@@]21C)[C@@]1(C)CC[C@@H](O)C[C@H]1C[C@@H]3O","C[C@H](CCC(=O)NCC(=O)[O-])[C@H]1CCC2C3C(CC[C@@]21C)[C@@]1(C)CC[C@@H](O)C[C@H]1C[C@@H]3O",98.99887550173047,"C[C@H](CCC(=O)NCC(=O)[O-])[C@H]1CCC2C3C(CC[C@]12C)[C@@]1(C)CC[C@@H](O)C[C@H]1C[C@@H]3O",2.259399999999999,109.69000000000001,448.30684702390994,6,3,6,3,5,1,6,32,74,10,4,0,4,4,0,0,0,0,4,4,0.9230769230769231
"B-3097","ethiozin",-2.7353,"CCSc1nnc(C(C)(C)C)c(=O)n1N","CCSC1=NN=C(C(C)(C)C)C(=O)N1N",37.8607174855896,"CCSc1nnc(C(C)(C)C)c(=O)n1N",1.2135,71.05,228.104482132,5,2,1,1,5,1,6,15,31,0,1,0,0,1,0,0,1,0,0,0,0.6666666666666666
"B-3099","acetamide, 2-(benzoyloxy)-",-1.6405,"NC(=O)COC(=O)c1ccccc1","NC(=O)COC(=O)c1ccccc1",21.062783527922,"NC(=O)COC(=O)c1ccccc1",0.32869999999999977,69.39000000000001,179.058243148,4,2,3,1,3,1,4,13,22,0,1,1,0,0,0,0,0,1,0,0,0.1111111111111111
"B-3100","acetamide, 2-(benzoyloxy)-n-ethyl-",-2.2373,"CCNC(=O)COC(=O)c1ccccc1","CCNC(=O)COC(=O)c1ccccc1",12.312620129302164,"CCNC(=O)COC(=O)c1ccccc1",0.9794999999999998,55.4,207.089543276,4,1,4,1,3,1,4,15,28,0,1,1,0,0,0,0,0,1,0,0,0.2727272727272727
"B-3101","benzoic acid, 2-(diethylamino)-2-oxoethyl ester",-2.0706,"CCN(CC)C(=O)COC(=O)c1ccccc1","CCN(CC)C(=O)COC(=O)c1ccccc1",12.129192511513018,"CCN(CC)C(=O)COC(=O)c1ccccc1",1.7117999999999998,46.61,235.120843404,4,0,5,0,3,1,4,17,34,0,1,1,0,0,0,0,0,1,0,0,0.38461538461538464
"B-3102","dl-alanine, n-ethyl-",0.6522,"CC[NH2+]C(C)C(=O)[O-]","CC[NH2+]C(C)C(=O)[O-]",-44.802850048206786,"CC[NH2+]C(C)C(=O)[O-]",-2.2918999999999983,56.739999999999995,117.078978592,3,2,3,1,2,0,3,8,19,1,0,0,0,0,0,0,0,0,0,0,0.8
"B-3103","2,4(1h,3h)-pyrimidinedione, 5-aminodihydro-1,3-d",-1.117,"CN1C(=O)C([NH3+])C(=S)N(C)C1=O","CN1C(=O)C([NH3+])C(=S)N(C)C1=O",-101.78466882577673,"CN1C(=O)C([NH3+])C(=S)N(C)C1=O",-1.5518999999999987,68.26,188.04882398009,5,3,0,1,3,3,6,12,22,1,1,0,1,1,0,1,1,0,0,0,0.5
"B-3105","4(1h)-pteridinethione",-2.6471,"S=c1nc[nH]c2nccnc12","S=C1N=CNc2nccnc21",84.08597650448051,"S=c1nc[nH]c2nccnc12",0.6058999999999999,50.17,164.015667128,4,1,0,1,4,0,5,11,15,0,2,1,0,1,1,0,1,0,0,0,0
"B-3106","1,3-propanediol, 2-nitro-1-phenyl-, diacetate (e",-3.972,"CC(=O)OCC(C(OC(C)=O)c1ccccc1)[N+](=O)[O-]","CC(=O)OCC(C(OC(C)=O)c1ccccc1)[N+](=O)[O-]",-47.48655337226885,"CC(=O)OCC(C(OC(=O)C)c1ccccc1)[N+](=O)[O-]",1.4992,95.74000000000001,281.0899372,7,0,6,0,6,0,7,20,35,2,1,1,0,0,0,0,0,1,0,0,0.38461538461538464
"B-3107","fenitropan",-3.972,"CC(=O)OC[C@H]([C@@H](OC(C)=O)c1ccccc1)[N+](=O)[O-]","CC(=O)OC[C@H]([C@@H](OC(C)=O)c1ccccc1)[N+](=O)[O-]",-47.486553369910624,"CC(=O)OC[C@H]([C@@H](OC(=O)C)c1ccccc1)[N+](=O)[O-]",1.4992,95.74000000000001,281.0899372,7,0,6,0,6,0,7,20,35,2,1,1,0,0,0,0,0,1,0,0,0.38461538461538464
"B-3111","flutolanil",-4.6947,"CC(C)Oc1cccc(NC(=O)c2ccccc2C(F)(F)F)c1","CC(C)Oc1cccc(NC(=O)c2ccccc2C(F)(F)F)c1",34.005901051571676,"CC(C)Oc1cccc(NC(=O)c2ccccc2C(F)(F)F)c1",4.744900000000003,38.33,323.113313412,3,1,4,1,2,1,6,23,39,0,2,2,0,0,0,0,0,2,0,0,0.23529411764705882
"B-3116","4-cycloocten-1-amine, n,n-dimethyl-",-1.6004,"C[NH+](C)C1CCC=CCCC1","C[NH+](C)C1CCC=CCCC1",10.376290147149039,"C[NH+](C)C1CCC=CCCC1",1.0197999999999998,4.44,154.15902606008999,1,1,1,1,0,0,1,11,31,1,1,0,0,1,0,0,0,0,0,1,0.8
"B-3117","methasulfocarb",-2.7359,"CNC(=O)Sc1ccc(OS(C)(=O)=O)cc1","CNC(=O)Sc1ccc(OS(C)(=O)=O)cc1",-6.340032695154653,"CNC(=O)Sc1ccc(OS(=O)(=O)C)cc1",1.4565,72.47,261.012949832,5,1,3,1,5,1,7,16,27,0,1,1,0,0,0,0,0,1,0,0,0.2222222222222222
"B-3118","cyclopentanecarbonitrile, 1-methyl-2-oxo-",0.9095,"CC1(C#N)CCCC1=O","CC1(C#N)CCCC1=O",0.45839593761087727,"CC1(C#N)CCCC1=O",1.26928,40.86,123.068413908,2,0,0,0,2,0,2,9,18,1,1,0,1,1,0,0,0,0,1,1,0.7142857142857143
"B-3120","urea, (1,1-diethylpropyl)-",-1.8191,"CCC(CC)(CC)NC(N)=O","CCC(CC)(CC)NC(N)=O",-3.4583691872831785,"CCC(CC)(CC)NC(=O)N",1.6235,55.12,158.141913196,3,3,4,2,1,2,3,11,29,0,0,0,0,0,0,0,0,0,0,0,0.875
"B-3121","fenpropimorph",-2.4821,"CC(Cc1ccc(C(C)(C)C)cc1)C[NH+]1CC(C)OC(C)C1","CC(Cc1ccc(C(C)(C)C)cc1)C[NH+]1CC(C)OC(C)C1",73.17359022422923,"CC(Cc1ccc(C(C)(C)C)cc1)C[NH+]1CC(C)OC(C)C1",2.854800000000001,13.670000000000002,304.26349112809,2,1,4,1,1,0,2,22,56,3,2,1,1,1,0,1,1,1,0,0,0.7
"B-3123","hydramethylnon",-7.916,"CC1(C)CNC(NN=C(C=Cc2ccc(C(F)(F)F)cc2)C=Cc2ccc(C(F)(F)F)cc2)=[NH+]C1","CC1(C)CNC(NN=C(C=Cc2ccc(C(F)(F)F)cc2)C=Cc2ccc(C(F)(F)F)cc2)=[NH+]C1",62.87494689177552,"CC1(C)CNC(=[NH+]C1)NN=C(C=Cc1ccc(C(F)(F)F)cc1)C=Cc1ccc(C(F)(F)F)cc1",4.462400000000003,50.39,495.19779254009006,4,3,5,3,3,0,10,35,60,0,3,2,0,1,0,0,1,2,0,0,0.28
"B-3125","fenpropimorph",-4.8487,"CC(Cc1ccc(C(C)(C)C)cc1)C[NH+]1C[C@H](C)O[C@H](C)C1","CC(Cc1ccc(C(C)(C)C)cc1)C[NH+]1C[C@H](C)O[C@H](C)C1",76.25078594136993,"CC(Cc1ccc(C(C)(C)C)cc1)C[NH+]1C[C@H](C)O[C@H](C)C1",2.854800000000001,13.670000000000002,304.26349112809,2,1,4,1,1,0,2,22,56,4,2,1,1,1,0,1,1,1,0,0,0.7
"B-3128","glycine, n-(aminocarbonyl)-n-nitroso-, ethyl est",0.7566,"CCOC(=O)CN(N=O)C(N)=O","CCOC(=O)CN(N=O)C(N)=O",-8.090033395381122,"CCOC(=O)CN(N=O)C(=O)N",-0.38840000000000025,102.06,175.059305768,7,2,4,1,5,2,7,12,21,0,0,0,0,0,0,0,0,0,0,0,0.6
"B-3131","1,7-naphthyridin-8(7h)-one",-1.1428,"O=c1[nH]ccc2cccnc12","O=C1NC=Cc2cccnc21",54.1853837941722,"O=c1[nH]ccc2cccnc12",0.7957,41.99,146.048012812,3,1,0,1,2,1,3,11,17,0,2,1,0,1,1,0,1,0,0,0,0
"B-3146","guanidine, n,n'-bis(4-methoxyphenyl)-",-2.7345,"COc1ccc(NC(=[NH2+])Nc2ccc(OC)cc2)cc1","COc1ccc(NC(=[NH2+])Nc2ccc(OC)cc2)cc1",39.41527352883331,"COc1ccc(NC(=[NH2+])Nc2ccc(OC)cc2)cc1",1.3428999999999989,68.11,272.13935323609,5,4,4,3,2,0,5,20,38,0,2,2,0,0,0,0,0,2,0,0,0.13333333333333333
"B-3148","benfuresate",-2.9921,"CCS(=O)(=O)Oc1ccc2c(c1)C(C)(C)CO2","CCS(=O)(=O)Oc1ccc2c(c1)C(C)(C)CO2",27.22109525404011,"CCS(=O)(=O)Oc1ccc2c(c1)C(C)(C)CO2",2.0851,52.60000000000001,256.07692999200003,4,0,3,0,4,0,5,17,33,0,2,1,0,1,0,0,1,1,0,0,0.5
"B-3149","acetamide, n-acetyl-2-(benzoyloxy)-",-2.4003,"CC(=O)NC(=O)COC(=O)c1ccccc1","CC(=O)NC(=O)COC(=O)c1ccccc1",-3.879228307368792,"CC(=O)NC(=O)COC(=O)c1ccccc1",0.5060999999999996,72.47,221.068807832,5,1,3,1,4,2,5,16,27,0,1,1,0,0,0,0,0,1,0,0,0.18181818181818182
"B-3152","buprofezin",-5.5307,"CC(C)N1C(=O)N(c2ccccc2)CSC1=[NH+]C(C)(C)C","CC(C)N1C(=O)N(c2ccccc2)CSC1=[NH+]C(C)(C)C",-141.0718089560079,"CC(C)N1C(=O)N(c2ccccc2)CSC1=[NH+]C(C)(C)C",2.2628000000000004,37.52,306.16345980809,4,1,2,1,2,2,5,21,45,0,2,1,1,1,0,1,1,1,0,0,0.5
"B-3157","2,2,4-pentanetricarboxylic acid",-0.1086,"CC(CC(C)(C(=O)[O-])C(=O)[O-])C(=O)[O-]","CC(CC(C)(C(=O)[O-])C(=O)[O-])C(=O)[O-]",168.84762813504724,"CC(CC(C)(C(=O)[O-])C(=O)[O-])C(=O)[O-]",-3.731399999999998,120.38999999999999,201.04155874773002,6,0,5,0,6,0,6,14,23,1,0,0,0,0,0,0,0,0,0,0,0.625
"B-3161","fluazifop - butyl",-5.5836,"CCCCOC(=O)C(C)Oc1ccc(Oc2ccc(C(F)(F)F)cn2)cc1","CCCCOC(=O)C(C)Oc1ccc(Oc2ccc(C(F)(F)F)cn2)cc1",38.79738905403153,"CCCCOC(=O)C(C)Oc1ccc(Oc2ccc(C(F)(F)F)cn2)cc1",5.003300000000005,57.650000000000006,383.13444278000003,5,0,8,0,5,0,8,27,47,1,2,2,0,0,1,0,0,1,0,0,0.3684210526315789
"B-3163","benzoic acid, 2-[4,5-dihydro-4-methyl-4-(1-methy",-2.3262,"COC(=O)c1cc(C)ccc1C1=[NH+]C(C)(C(C)C)C(=O)N1","COC(=O)c1cc(C)ccc1C1=[NH+]C(C)(C(C)C)C(=O)N1",5.9093408286315725,"COC(=O)c1cc(C)ccc1C1=[NH+]C(C)(C(C)C)C(=O)N1",0.15332000000000018,69.37,289.15466895209005,5,2,3,2,3,1,5,21,42,1,2,1,0,1,0,0,1,1,0,0,0.4375
"B-3164","flucythrinate",-6.8765,"CC(C)C(C(=O)OC(C#N)c1cccc(Oc2ccccc2)c1)c1ccc(OC(F)F)cc1","CC(C)C(C(=O)OC(C#N)c1cccc(Oc2ccccc2)c1)c1ccc(OC(F)F)cc1",65.26487798470085,"CC(C)C(C(=O)OC(C#N)c1cccc(Oc2ccccc2)c1)c1ccc(OC(F)F)cc1",6.627980000000005,68.55000000000001,451.159514656,5,0,9,0,5,0,7,33,56,2,3,3,0,0,0,0,0,3,0,0,0.23076923076923078
"B-3165","3-pyridinecarboxylic acid, octyl ester",-3.0929,"CCCCCCCCOC(=O)c1cccnc1","CCCCCCCCOC(=O)c1cccnc1",2.379770860716411,"CCCCCCCCOC(=O)c1cccnc1",3.598900000000002,39.19,235.157228912,3,0,8,0,3,0,3,17,38,0,1,1,0,0,1,0,0,0,0,0,0.5714285714285714
"B-3172","dl-alanine, n-[(ethylthio)thioxomethyl]-",-1.2343,"CCSC(=S)NC(C)C(=O)[O-]","CCSC(=S)NC(C)C(=O)[O-]",20.430750984079346,"CCSC(=S)NC(C)C(=O)[O-]",-0.24760000000000004,52.16,192.01584413991,3,1,3,1,4,0,5,11,21,1,0,0,0,0,0,0,0,0,0,0,0.6666666666666666
"B-3174","benzenesulfonamide, 4-amino-n-(5-propyl-1,3,4-th",-3.3075,"CCCc1nnc(NS(=O)(=O)c2ccc(N)cc2)s1","CCCc1nnc(NS(=O)(=O)c2ccc(N)cc2)s1",-31.690407080501075,"CCCc1nnc(NS(=O)(=O)c2ccc(N)cc2)s1",1.8736000000000002,97.97,298.055817688,6,3,5,2,6,0,8,19,33,0,2,2,0,0,1,0,0,1,0,0,0.2727272727272727
"B-3177","benalaxyl",-3.9442,"COC(=O)C(C)N(C(=O)Cc1ccccc1)c1c(C)cccc1C","COC(=O)C(C)N(C(=O)Cc1ccccc1)c1c(C)cccc1C",63.282159693253185,"COC(=O)C(C)N(C(=O)Cc1ccccc1)c1c(C)cccc1C",3.440640000000002,46.61,325.167793596,4,0,5,0,3,1,4,24,47,1,2,2,0,0,0,0,0,2,0,0,0.3
"B-3179","propanediamide, 2-(hydroxyimino)-",-0.0384,"NC(=O)C(=NO)C(N)=O","NC(=O)C(=NO)C(N)=O",32.31668679856721,"NC(=O)C(=NO)C(=O)N",-2.2128,118.77000000000001,131.03309102,6,5,2,3,4,2,6,9,14,0,0,0,0,0,0,0,0,0,0,0,0
"B-3182","ethanesulfonamide, n-(ethylsulfonyl)-",0.5413,"CCS(=O)(=O)NS(=O)(=O)CC","CCS(=O)(=O)NS(=O)(=O)CC",-103.90963207149125,"CCS(=O)(=O)NS(=O)(=O)CC",-0.7245999999999999,80.31,201.012949832,5,1,4,1,4,0,7,11,22,0,0,0,0,0,0,0,0,0,0,0,1
"B-3185","fenoxycarb",-4.7009,"CCOC(=O)NCCOc1ccc(Oc2ccccc2)cc1","CCOC(=O)NCCOc1ccc(Oc2ccccc2)cc1",15.448568735563976,"CCOC(=O)NCCOc1ccc(Oc2ccccc2)cc1",3.6038000000000023,56.790000000000006,301.131408088,5,1,7,1,4,1,5,22,41,0,2,2,0,0,0,0,0,2,0,0,0.23529411764705882
"B-3186","azo dye n5",-8.8809,"CCCCN(CCOC(C)=O)c1ccc(N=Nc2c(C#N)cc([N+](=O)[O-])cc2C#N)c(C)c1","CCCCN(CCOC(C)=O)c1ccc(N=Nc2c(C#N)cc([N+](=O)[O-])cc2C#N)c(C)c1",46.68244197396802,"CCCCN(CCOC(=O)C)c1ccc(N=Nc2c(C#N)cc([N+](=O)[O-])cc2C#N)c(C)c1",5.2315800000000054,144.98,448.185903248,10,0,10,0,9,0,10,33,57,0,2,2,0,0,0,0,0,2,0,0,0.34782608695652173
"B-3188","1,2-benzenediol, 4-(1-propenyl)-",-1.3505,"CC=Cc1ccc(O)c(O)c1","CC=Cc1ccc(O)c(O)c1",17.980911140199233,"CC=Cc1ccc(O)c(O)c1",2.1309000000000005,40.46,150.06807956,2,2,1,2,2,0,2,11,21,0,1,1,0,0,0,0,0,1,0,0,0.1111111111111111
"B-3189","imiprothrin",-3.5321,"C#CCN1CC(=O)N(COC(=O)C2C(C=C(C)C)C2(C)C)C1=O","C#CCN1CC(=O)N(COC(=O)C2C(C=C(C)C)C2(C)C)C1=O",-112.71866029683738,"C#CCN1CC(=O)N(COC(=O)C2C(C=C(C)C)C2(C)C)C1=O",1.6228999999999996,66.92,318.157957184,6,0,5,0,4,3,6,23,45,2,2,0,2,2,0,1,1,0,1,1,0.5882352941176471
"B-3190","mefenacet",-4.8727,"CN(C(=O)COc1nc2ccccc2s1)c1ccccc1","CN(C(=O)COc1nc2ccccc2s1)c1ccccc1",28.85291313181486,"CN(C(=O)COc1nc2ccccc2s1)c1ccccc1",3.3381000000000016,42.43000000000001,298.077598688,4,0,4,0,4,1,5,21,35,0,3,3,0,0,1,0,0,2,0,0,0.125
"B-3194","propanoic acid, 2-hydroxy-, 2-(hexyloxy)-1-methy",-2.4884,"CCCCCCOC(=O)C(C)OC(=O)C(C)O","CCCCCCOC(=O)C(C)OC(=O)C(C)O",19.176782607915957,"CCCCCCOC(=O)C(C)OC(=O)C(C)O",1.4223999999999999,72.83,246.146723804,5,1,8,1,5,0,5,17,39,2,0,0,0,0,0,0,0,0,0,0,0.8333333333333334
"B-3195","2-pyrimidinecarboxamide, 4,6-dimethyl-",0.1216,"Cc1cc(C)nc(C(N)=O)n1","Cc1cc(C)nc(C(N)=O)n1",61.10896574489319,"Cc1cc(C)nc(C(=O)N)n1",0.19234000000000007,68.87,151.074561908,4,2,1,1,3,1,4,11,20,0,1,1,0,0,1,0,0,0,0,0,0.2857142857142857
"B-3196","ketanserin",-4.5971,"O=C(c1ccc(F)cc1)C1CC[NH+](CCn2c(=O)[nH]c3ccccc3c2=O)CC1","O=C(c1ccc(F)cc1)C1CC[NH+](CCN2C(=O)Nc3ccccc3C2=O)CC1",-34.12098172284742,"O=C(c1ccc(F)cc1)C1CC[NH+](CCn2c(=O)[nH]c3ccccc3c2=O)CC1",1.9911999999999994,70.92,396.17179623609,6,2,5,2,3,3,7,29,52,0,4,2,1,2,0,1,2,2,0,0,0.3181818181818182
"B-3198","hydrazinecarboxamide, n-(4-ethoxyphenyl)-",-1.6471,"CCOc1ccc(NC(=O)N[NH3+])cc1","CCOc1ccc(NC(=O)N[NH3+])cc1",-19.911294905375485,"CCOc1ccc(NC(=O)N[NH3+])cc1",0.36369999999999963,78,196.10805310809,5,5,3,3,2,2,5,14,28,0,1,1,0,0,0,0,0,1,0,0,0.2222222222222222
"B-3200","sulfometuron (ph 5-7)",-3.1742,"COC(=O)c1ccccc1S(=O)(=O)NC(=O)Nc1nc(C)cc(C)n1","COC(=O)c1ccccc1S(=O)(=O)NC(=O)Nc1nc(C)cc(C)n1",-128.07294991651858,"COC(=O)c1ccccc1S(=O)(=O)NC(=O)Nc1nc(C)cc(C)n1",1.39044,127.35,364.08414061200006,9,2,4,2,7,2,10,25,41,0,2,2,0,0,1,0,0,1,0,0,0.2
"B-3220","oxabetrinil",-4.0649,"N#CC(=NOCC1OCCO1)c1ccccc1","N#CC(=NOCC1OCCO1)c1ccccc1",86.9548716762677,"N#CC(=NOCC1OCCO1)c1ccccc1",1.3037800000000002,63.84,232.084792244,5,0,4,0,5,0,5,17,29,0,2,1,1,1,0,1,1,1,0,0,0.3333333333333333
"B-3222","enalapril",-1.3609,"CCOC(=O)[C@H](CCc1ccccc1)[NH2+][C@@H](C)C(=O)N1CCC[C@H]1C(=O)[O-]","CCOC(=O)[C@H](CCc1ccccc1)[NH2+][C@@H](C)C(=O)N1CCC[C@H]1C(=O)[O-]",-33.12251576194912,"CCOC(=O)[C@H](CCc1ccccc1)[NH2+][C@@H](C)C(=O)N1CCC[C@H]1C(=O)[O-]",-0.7562999999999966,103.35,376.1998219959999,7,2,9,1,5,1,7,27,55,3,2,1,1,1,0,1,1,1,0,0,0.55
"B-3223","phosphonic acid, [[4-(2-benzothiazolyl)phenyl]me",-4.0017,"CCOP(=O)(Cc1ccc(-c2nc3ccccc3s2)cc1)OCC","CCOP(=O)(Cc1ccc(-c2nc3ccccc3s2)cc1)OCC",9.917495371982675,"CCOP(=O)(Cc1ccc(c2nc3ccccc3s2)cc1)OCC",5.7294000000000045,48.42,361.09015113,4,0,7,0,5,0,6,24,44,0,3,3,0,0,1,0,0,2,0,0,0.2777777777777778
"B-3224","4h-imidazol-4-one, 2-amino-1-ethyl-1,5-dihydro-",-0.165,"CCN1CC(=O)[NH+]=C1N","CCN1CC(=O)[NH+]=C1N",-14.308219470316889,"CCN1CC(=O)[NH+]=C1N",-2.756199999999999,60.3,128.08183836009,4,3,1,2,3,1,4,9,19,0,1,0,0,1,0,0,1,0,0,0,0.6
"B-3228","benzoic acid, 2-(acetyloxy)-, (methylthio)methyl",-2.6404,"CSCOC(=O)c1ccccc1OC(C)=O","CSCOC(=O)c1ccccc1OC(C)=O",2.612422724877364,"CSCOC(=O)c1ccccc1OC(=O)C",2.0892,52.6,240.045629864,4,0,4,0,5,0,5,16,28,0,1,1,0,0,0,0,0,1,0,0,0.2727272727272727
"B-3229","benzoic acid, 2-(acetyloxy)-, (methylsulfinyl)me",-1.7824,"CC(=O)Oc1ccccc1C(=O)OCS(C)=O","CC(=O)Oc1ccccc1C(=O)OCS(C)=O",14.476963032971963,"CC(=O)Oc1ccccc1C(=O)OCS(=O)C",1.1047,69.67000000000002,256.040544484,5,0,4,0,5,0,6,17,29,1,1,1,0,0,0,0,0,1,0,0,0.2727272727272727
"B-3230","benzoic acid, 2-(acetyloxy)-, (methylsulfonyl)me",-3.3936,"CC(=O)Oc1ccccc1C(=O)OCS(C)(=O)=O","CC(=O)Oc1ccccc1C(=O)OCS(C)(=O)=O",33.496996350694786,"CC(=O)Oc1ccccc1C(=O)OCS(=O)(=O)C",0.7708,86.74000000000001,272.035459104,6,0,4,0,6,0,7,18,30,0,1,1,0,0,0,0,0,1,0,0,0.2727272727272727
"B-3234","flutriafol (pp450)",-3.3651,"OC(Cn1cncn1)(c1ccc(F)cc1)c1ccccc1F","OC(Cn1cncn1)(c1ccc(F)cc1)c1ccccc1F",23.939625602039477,"OC(Cn1cncn1)(c1ccc(F)cc1)c1ccccc1F",2.492400000000001,50.94,301.102668476,4,1,4,1,4,0,6,22,35,1,3,3,0,0,1,0,0,2,0,0,0.125
"B-3237","glycine, n-(n-l-leucyl-l-alanyl)-",-0.8953,"CC(C)C[C@H]([NH3+])C(=O)N[C@@H](C)C(=O)NCC(=O)[O-]","CC(C)C[C@H]([NH3+])C(=O)N[C@@H](C)C(=O)NCC(=O)[O-]",-67.51875654795016,"CC(C)C[C@H]([NH3+])C(=O)N[C@@H](C)C(=O)NCC(=O)[O-]",-2.9861999999999966,125.97,259.153206152,7,5,7,3,4,2,7,18,39,2,0,0,0,0,0,0,0,0,0,0,0.7272727272727273
"B-3238","carbamic acid, ethylmethyl-, ethyl ester",-0.4189,"CCOC(=O)N(C)CC","CCOC(=O)N(C)CC",-55.98572526905103,"CCOC(=O)N(C)CC",1.0946,29.54,131.094628656,3,0,2,0,2,1,3,9,22,0,0,0,0,0,0,0,0,0,0,0,0.8333333333333334
"B-3242","2-butanol, 4,4-diethoxy-",0.0909,"CCOC(CC(C)O)OCC","CCOC(CC(C)O)OCC",-20.180394291244905,"CCOC(CC(C)O)OCC",1.1564,38.69,162.125594436,3,1,6,1,3,0,3,11,29,1,0,0,0,0,0,0,0,0,0,0,1
"B-3243","4(1h)-pteridinone, hydrazone",-1.8632,"NN=c1nc[nH]c2nccnc12","NN=C1N=CNc2nccnc21",84.52150903317572,"NN=c1nc[nH]c2nccnc12",-0.44930000000000025,88.55,162.06539419199999,6,3,0,2,5,0,6,12,18,0,2,1,0,1,1,0,1,0,0,0,0
"B-3244","oxadixyl",-1.913,"COCC(=O)N(c1c(C)cccc1C)N1CCOC1=O","COCC(=O)N(c1c(C)cccc1C)N1CCOC1=O",65.5849332797853,"COCC(=O)N(c1c(C)cccc1C)N1CCOC1=O",1.6500400000000004,59.080000000000005,278.126657056,6,0,4,0,4,2,6,20,38,0,2,1,1,1,0,1,1,1,0,0,0.42857142857142855
"B-3245","3-pyridinecarboxamide, n-hexyl-",-2.5221,"CCCCCCNC(=O)c1cccnc1","CCCCCCNC(=O)c1cccnc1",1.8201817734944616,"CCCCCCNC(=O)c1cccnc1",2.3917,41.99,206.141913196,3,1,6,1,2,1,3,15,33,0,1,1,0,0,1,0,0,0,0,0,0.5
"B-3246","2,4,6(1h,3h,5h)-pyrimidinetrione, 1-(2,3-dihydro",-1.7872,"CCC1(c2ccccc2)C(=O)NC(=O)N(CC(O)CO)C1=O","CCC1(c2ccccc2)C(=O)NC(=O)N(CC(O)CO)C1=O",-28.432771520000426,"CCC1(c2ccccc2)C(=O)NC(=O)N(CC(O)CO)C1=O",-0.23399999999999982,106.94,306.121571676,7,3,5,3,5,4,7,22,40,2,2,1,1,1,0,1,1,1,0,0,0.4
"B-3249","fluazifop-p-butyl",-5.2826,"CCCCOC(=O)[C@@H](C)Oc1ccc(Oc2ccc(C(F)(F)F)cn2)cc1","CCCCOC(=O)[C@@H](C)Oc1ccc(Oc2ccc(C(F)(F)F)cn2)cc1",38.87289136937049,"CCCCOC(=O)[C@@H](C)Oc1ccc(Oc2ccc(C(F)(F)F)cn2)cc1",5.003300000000005,57.650000000000006,383.13444278000003,5,0,8,0,5,0,8,27,47,1,2,2,0,0,1,0,0,1,0,0,0.3684210526315789
"B-3250","harmony",-2.2379,"COC(=O)c1sccc1S(=O)(=O)NC(=O)Nc1nc(C)nc(OC)n1","COC(=O)c1sccc1S(=O)(=O)NC(=O)Nc1nc(C)nc(OC)n1",-237.90919091964287,"COC(=O)c1sccc1S(=O)(=O)NC(=O)Nc1nc(C)nc(OC)n1",0.5471199999999999,149.46999999999997,387.0307251360001,11,2,5,2,10,2,13,25,38,0,2,2,0,0,2,0,0,0,0,0,0.25
"B-3252","butanamide, n,n,2-triethyl-",-1.0876,"CCC(CC)C(=O)N(CC)CC","CCC(CC)C(=O)N(CC)CC",-7.938061472542685,"CCC(CC)C(=O)N(CC)CC",2.2910000000000004,20.310000000000002,171.162314292,2,0,5,0,1,1,2,12,33,0,0,0,0,0,0,0,0,0,0,0,0.9
"B-3255","diafenthiuron",-6.8068,"CC(C)c1cc(Oc2ccccc2)cc(C(C)C)c1NC(=S)NC(C)(C)C","CC(C)c1cc(Oc2ccccc2)cc(C(C)C)c1NC(=S)NC(C)(C)C",54.176570336580454,"CC(C)c1cc(Oc2ccccc2)cc(C(C)C)c1NC(=S)NC(C)(C)C",6.810600000000006,33.29,384.22353464400004,3,2,5,2,2,0,4,27,59,0,2,2,0,0,0,0,0,2,0,0,0.43478260869565216
"B-3256","etofenprox",-8.5758,"CCOc1ccc(C(C)(C)COCc2cccc(Oc3ccccc3)c2)cc1","CCOc1ccc(C(C)(C)COCc2cccc(Oc3ccccc3)c2)cc1",70.53688645847627,"CCOc1ccc(C(C)(C)COCc2cccc(Oc3ccccc3)c2)cc1",6.372000000000006,27.69,376.20384475599997,3,0,9,0,3,0,3,28,56,0,3,3,0,0,0,0,0,3,0,0,0.28
"B-3259","imazethapyr",-2.3153,"CCc1cnc(C2=[NH+]C(C)(C(C)C)C(=O)N2)c(C(=O)[O-])c1","CCc1cnc(C2=[NH+]C(C)(C(C)C)C(=O)N2)c(C(=O)[O-])c1",-73.62955497531755,"CCc1cnc(C2=[NH+]C(C)(C(C)C)C(=O)N2)c(C(=O)[O-])c1",-1.6207999999999978,96.09,289.142641468,6,2,4,2,4,1,6,21,40,1,2,1,0,1,1,0,1,0,0,0,0.4666666666666667