"ID","Name","Solubility","SMILES Canonical","Smiles (Optimized Geometry)","Energy","Smiles","SlogP","TPSA","ExactMW","NumLipinskiHBA","NumLipinskiHBD","NumRotatableBonds","NumHBD","NumHBA","NumAmideBonds","NumHeteroAtoms","NumHeavyAtoms","NumAtoms","NumStereocenters","NumRings","NumAromaticRings","NumSaturatedRings","NumAliphaticRings","NumAromaticHeterocycles","NumSaturatedHeterocycles","NumAliphaticHeterocycles","NumAromaticCarbocycles","NumSaturatedCarbocycles","NumAliphaticCarbocycles","FractionCSP3"
"B-1022","2-butenoic acid, 4-[(aminocarbonyl)amino]-4-oxo-",-1.9202,"NC(=O)NC(=O)C=CC(=O)[O-]","NC(=O)NC(=O)C=CC(=O)[O-]",-31.254411603860937,"NC(=O)NC(=O)C=CC(=O)[O-]",-2.5126,112.32,157.02548021991,6,3,2,2,4,3,6,11,16,0,0,0,0,0,0,0,0,0,0,0,0
"B-1023","bis(ethylxanthogen)",-4.9432,"CCOC(=S)SSC(=S)OCC","CCOC(=S)SSC(=S)OCC",-5.4362097104651115,"CCOC(=S)SSC(=S)OCC",3.010600000000001,18.46,241.95636356,2,0,2,0,6,0,6,12,22,0,0,0,0,0,0,0,0,0,0,0,0.6666666666666666
"B-1031","1,4-dithiane",-1.6029,"C1CSCCS1","C1CSCCS1",24.512711539969885,"C1CSCCS1",1.4664,0,120.006742256,0,0,0,0,2,0,2,6,14,0,1,0,1,1,0,1,1,0,0,0,1
"B-1032","suberic acid",-1.1673,"O=C([O-])CCCCCCC(=O)[O-]","O=C([O-])CCCCCCC(=O)[O-]",38.23710650208342,"O=C([O-])CCCCCCC(=O)[O-]",-1.1731999999999994,80.25999999999999,172.07465602382,4,0,7,0,4,0,4,12,24,0,0,0,0,0,0,0,0,0,0,0,0.75
"B-1035","2,4-hexadienedioic acid,",-2.8516,"O=C([O-])C=CC=CC(=O)[O-]","O=C([O-])C=CC=CC(=O)[O-]",61.00510393913423,"O=C([O-])C=CC=CC(=O)[O-]",-2.4013999999999998,80.25999999999999,140.01205576782002,4,0,3,0,4,0,4,10,14,0,0,0,0,0,0,0,0,0,0,0,0
"B-1038","borneol",-2.3202,"CC1(C)C2CCC1(C)C(O)C2","CC1(C)C2CCC1(C)C(O)C2",39.63197753758016,"CC1(C)C2CCC1(C)C(O)C2",2.1935000000000002,20.23,154.135765196,1,1,0,1,1,0,1,11,29,3,2,0,2,2,0,0,0,0,2,2,1
"B-1040","hydrocortisone tebutate",-5.5111,"CC(C)(C)CC(=O)OCC(=O)C1(O)CCC2C3CCC4=CC(=O)CCC4(C)C3C(O)CC21C","CC(C)(C)CC(=O)OCC(=O)C1(O)CCC2C3CCC4=CC(=O)CCC4(C)C3C(O)CC21C",78.01363320963178,"CC(C)(C)CC(=O)OCC(=O)C1(O)CCC2C3CCC4=CC(=O)CCC4(C)C3C(O)CC12C",3.7687000000000026,100.90000000000002,460.28248899999994,6,2,4,2,6,0,6,33,73,7,4,0,3,4,0,0,0,0,3,4,0.8148148148148148
"B-1041","tetranitromethane",-2.3381,"O=[N+]([O-])C([N+](=O)[O-])([N+](=O)[O-])[N+](=O)[O-]","O=[N+]([O-])C([N+](=O)[O-])([N+](=O)[O-])[N+](=O)[O-]",-163.0103924147288,"O=[N+]([O-])C([N+](=O)[O-])([N+](=O)[O-])[N+](=O)[O-]",-1.2954999999999997,172.56,195.97161296000002,12,0,4,0,8,0,12,13,13,0,0,0,0,0,0,0,0,0,0,0,1
"B-1042","pholcodine",-1.2994,"C[NH+]1CC[C@]23c4c5ccc(OCC[NH+]6CCOCC6)c4O[C@H]2[C@@H](O)C=CC3[C@H]1C5","C[NH+]1CC[C@]23c4c5ccc(OCC[NH+]6CCOCC6)c4O[C@H]2[C@@H](O)C=CC3[C@H]1C5",178.72658857097596,"C[NH+]1CC[C@]23c4c5ccc(OCC[NH+]6CCOCC6)c4O[C@H]2[C@@H](O)C=CC3[C@H]1C5",-1.630699999999993,56.80000000000001,400.23511034417993,6,3,4,3,4,0,6,29,61,6,6,1,2,5,0,2,3,1,0,2,0.6521739130434783
"B-1043","2,4,6(1h,3h,5h)-pyrimidinetrione, 5-ethyl-5-(1-p",-2.1562,"CCC1([NH+]2CCCCC2)C(=O)NC(=O)NC1=O","CCC1([NH+]2CCCCC2)C(=O)NC(=O)NC1=O",-12.281926824627146,"CCC1([NH+]2CCCCC2)C(=O)NC(=O)NC1=O",-1.4299999999999984,79.71000000000001,240.13426785609,6,3,2,3,3,4,6,17,35,0,2,0,2,2,0,2,2,0,0,0,0.7272727272727273
"B-1047","tripropyl phosphate",-1.5412,"CCCOP(=O)(OCCC)OCCC","CCCOP(=O)(OCCC)OCCC",-83.07263611175509,"CCCOP(=O)(OCCC)OCCC",3.3743000000000025,44.760000000000005,224.117745782,4,0,9,0,4,0,5,14,35,0,0,0,0,0,0,0,0,0,0,0,1
"B-1055","abietic acid",-3.7959,"CC(C)C1=CC2=CC[C@H]3[C@](C)(C(=O)[O-])CCC[C@]3(C)[C@H]2CC1","CC(C)C1=CC2=CC[C@H]3[C@](C)(C(=O)[O-])CCC[C@]3(C)[C@H]2CC1",34.884711837243195,"CC(C)C1=CC2=CC[C@H]3[C@](C)(C(=O)[O-])CCC[C@]3(C)[C@H]2CC1",3.871500000000003,40.129999999999995,301.21730374791,2,0,2,0,2,0,2,22,51,4,3,0,1,3,0,0,0,0,1,3,0.75
"B-1056","3,11-dihydroxy-androstan-17-one",-3.5932,"CC12CC(O)C3C(CCC4C[C@@H](O)CCC43C)C1CCC2=O","CC12CC(O)C3C(CCC4C[C@@H](O)CCC43C)C1CCC2=O",59.5479657747092,"CC12CC(O)C3C(CCC4C[C@@H](O)CCC34C)C1CCC2=O",2.9299000000000017,57.53,306.21949481999997,3,2,0,2,3,0,3,22,52,8,4,0,4,4,0,0,0,0,4,4,0.9473684210526315
"B-1057","benzeneacetic acid, .alpha.-hydroxy-.alpha.-meth",-0.8949,"CC(O)(C(=O)[O-])c1ccccc1","CC(O)(C(=O)[O-])c1ccccc1",86.71579472381819,"CC(O)(C(=O)[O-])c1ccccc1",-0.35600000000000054,60.36,165.05571772791,3,1,2,1,3,0,3,12,21,1,1,1,0,0,0,0,0,1,0,0,0.2222222222222222
"B-1060","methyl malonic acid",0.7597,"CC(C(=O)[O-])C(=O)[O-]","CC(C(=O)[O-])C(=O)[O-]",42.28282247894777,"CC(C(=O)[O-])C(=O)[O-]",-2.877699999999999,80.25999999999999,116.01205576782002,4,0,2,0,4,0,4,8,12,0,0,0,0,0,0,0,0,0,0,0,0.5
"B-1061","dl-valine",-0.1971,"CC(C)C([NH3+])C(=O)[O-]","CC(C)C([NH3+])C(=O)[O-]",-63.15137685719688,"CC(C)C([NH3+])C(=O)[O-]",-1.9971999999999985,67.77,117.078978592,3,3,2,1,2,0,3,8,19,1,0,0,0,0,0,0,0,0,0,0,0.8
"B-1064","beta-peltatin",-4.5035,"COc1cc([C@@H]2c3cc4c(c(O)c3C[C@H]3COC(=O)[C@@H]32)OCO4)cc(OC)c1OC","COc1cc([C@@H]2c3cc4c(c(O)c3C[C@H]3COC(=O)[C@@H]32)OCO4)cc(OC)c1OC",63.25215506907966,"COc1cc([C@@H]2c3cc4c(c(O)c3C[C@H]3COC(=O)[C@H]23)OCO4)cc(OC)c1OC",2.623900000000001,92.68,414.1314676639999,8,1,4,1,8,0,8,30,52,3,5,2,1,3,0,1,2,2,0,1,0.4090909090909091
"B-1065","fluorescein",-3.8226,"O=C1OC2(c3ccc(O)cc3Oc3cc(O)ccc32)c2ccccc21","O=C1OC2(c3ccc(O)cc3Oc3cc(O)ccc32)c2ccccc21",34.91091510526697,"O=C1OC2(c3ccc(O)cc3Oc3cc(O)ccc23)c2ccccc12",3.6658000000000017,75.99000000000001,332.06847348400004,5,2,0,2,5,0,5,25,37,0,5,3,0,2,0,0,2,3,0,0,0.05
"B-1066","6-formyl-2,3-dimethoxybenzoic acid",-1.9247,"COc1ccc(C=O)c(C(=O)[O-])c1OC","COc1ccc(C=O)c(C(=O)[O-])c1OC",26.038411645707793,"COc1ccc(C=O)c(C(=O)[O-])c1OC",-0.1202000000000003,75.66000000000001,209.04554696791,5,0,4,0,5,0,5,15,24,0,1,1,0,0,0,0,0,1,0,0,0.2
"B-1067","dioxypyramidon",-0.5345,"CC(=O)N(C)N(C(=O)C(=O)N(C)C)c1ccccc1","CC(=O)N(C)N(C(=O)C(=O)N(C)C)c1ccccc1",81.75309724811537,"CC(=O)N(C)N(C(=O)C(=O)N(C)C)c1ccccc1",0.5011000000000001,60.93000000000001,263.126991404,6,0,1,0,3,3,6,19,36,0,1,1,0,0,0,0,0,1,0,0,0.3076923076923077
"B-1070","hydroquinine",-3.0514,"CCC1C[NH+]2CCC1CC2C(O)c1ccnc2ccc(OC)cc12","CCC1C[NH+]2CCC1CC2C(O)c1ccnc2ccc(OC)cc12",79.05560024818062,"CCC1C[NH+]2CCC1CC2C(O)c1ccnc2ccc(OC)cc12",1.980099999999999,46.790000000000006,327.20670452409,4,2,4,2,3,0,4,24,51,5,5,2,3,3,1,3,3,1,0,0,0.55
"B-1071","1,6-naphthalenedisulfonic acid",0.5402,"O=S(=O)([O-])c1ccc2c(S(=O)(=O)[O-])cccc2c1","O=S(=O)([O-])c1ccc2c(S(=O)(=O)[O-])cccc2c1",70.02336277280013,"O=S(=O)([O-])c1ccc2c(S(=O)(=O)[O-])cccc2c1",0.6480000000000005,114.4,285.96167707182,6,0,2,0,6,0,8,18,24,0,2,2,0,0,0,0,0,2,0,0,0
"B-1072","propranolol",-3.6202,"CC(C)[NH2+]CC(O)COc1cccc2ccccc12","CC(C)[NH2+]CC(O)COc1cccc2ccccc12",27.640538512241996,"CC(C)[NH2+]CC(O)COc1cccc2ccccc12",1.5513000000000006,46.07000000000001,260.16450536409,3,3,6,2,2,0,3,19,41,1,2,2,0,0,0,0,0,2,0,0,0.375
"B-1073","tryptazan",-1.4091,"[NH3+]C(Cc1[nH]nc2ccccc12)C(=O)[O-]","[NH3+]C(Cc1[nH]nc2ccccc12)C(=O)[O-]",-60.46231797421933,"[NH3+]C(Cc1[nH]nc2ccccc12)C(=O)[O-]",-1.5341999999999993,96.45,205.08512659200002,5,4,3,2,3,0,5,15,26,1,2,2,0,0,1,0,0,1,0,0,0.2
"B-1079","thiophene-2-carboxylic acid",-1.2327,"O=C([O-])c1cccs1","O=C([O-])c1cccs1",11.766791735193507,"O=C([O-])c1cccs1",0.11159999999999992,40.129999999999995,126.98592391591,2,0,1,0,3,0,3,8,11,0,1,1,0,0,1,0,0,0,0,0,0
"B-1080","1-methyl-2-isopropylbenzene",-3.7606,"Cc1ccccc1C(C)C","Cc1ccccc1C(C)C",19.139804608100615,"Cc1ccccc1C(C)C",3.118420000000002,0,134.109550448,0,0,1,0,0,0,0,10,24,0,1,1,0,0,0,0,0,1,0,0,0.4
"B-1081","ethanedione, bis(2-hydroxy-5-nitrophenyl)-",-3.5214,"O=C(C(=O)c1cc([N+](=O)[O-])ccc1[O-])c1cc([N+](=O)[O-])ccc1[O-]","O=C(C(=O)c1cc([N+](=O)[O-])ccc1[O-])c1cc([N+](=O)[O-])ccc1[O-]",159.07758312936474,"O=C(C(=O)c1cc([N+](=O)[O-])ccc1[O-])c1cc([N+](=O)[O-])ccc1[O-]",0.7157999999999998,166.54000000000002,330.01351231181997,10,0,5,0,8,0,10,24,30,0,2,2,0,0,0,0,0,2,0,0,0
"B-1082","ethanone, 1-(2,3,4-trihydroxyphenyl)-",-2.0216,"CC(=O)c1ccc(O)c(O)c1O","CC(=O)c1ccc(O)c(O)c1O",21.72871068889697,"CC(=O)c1ccc(O)c(O)c1O",1.006,77.76,168.042258736,4,3,1,3,4,0,4,12,20,0,1,1,0,0,0,0,0,1,0,0,0.125
"B-1083","trimellitic acid",-1.0003,"O=C([O-])c1ccc(C(=O)[O-])c(C(=O)[O-])c1","O=C([O-])c1ccc(C(=O)[O-])c(C(=O)[O-])c1",200.78213374702386,"O=C([O-])c1ccc(C(=O)[O-])c(C(=O)[O-])c1",-3.2229,120.38999999999999,206.99460855573003,6,0,3,0,6,0,6,15,18,0,1,1,0,0,0,0,0,1,0,0,0
"B-1084","3,4-dinitrobenzoic acid",-1.5005,"O=C([O-])c1ccc([N+](=O)[O-])c([N+](=O)[O-])c1","O=C([O-])c1ccc([N+](=O)[O-])c([N+](=O)[O-])c1",-7.4709345389690895,"O=C([O-])c1ccc([N+](=O)[O-])c([N+](=O)[O-])c1",-0.13350000000000029,126.41,210.99965939591002,8,0,3,0,6,0,8,15,18,0,1,1,0,0,0,0,0,1,0,0,0
"B-1085","n-(aminocarbonyl)-2-(1-methylethyl)4-pentenamide",-2.7469,"C=CCC(C(=O)NC(N)=O)C(C)C","C=CCC(C(=O)NC(N)=O)C(C)C",-13.571770156244206,"C=CCC(C(=O)NC(=O)N)C(C)C",1.0296000000000003,72.19,184.121177752,4,3,4,2,2,3,4,13,29,1,0,0,0,0,0,0,0,0,0,0,0.5555555555555556
"B-1087","anthranol",-4.7329,"Oc1c2ccccc2cc2ccccc12","Oc1c2ccccc2cc2ccccc12",41.46635761973479,"Oc1c2ccccc2cc2ccccc12",3.6986000000000017,20.23,194.07316494,1,1,0,1,1,0,1,15,25,0,3,3,0,0,0,0,0,3,0,0,0
"B-1088","1,1-diphenylethylene",-4.4363,"C=C(c1ccccc1)c1ccccc1","C=C(c1ccccc1)c1ccccc1",40.2060539376848,"C=C(c1ccccc1)c1ccccc1",3.7481000000000018,0,180.093900384,0,0,2,0,0,0,0,14,26,0,2,2,0,0,0,0,0,2,0,0,0
"B-1090","1,2-cycloheptanedione, dioxime",-1.4249,"O=NC1=C(N[O-])CCCCC1","O=NC1=C(N[O-])CCCCC1",17.198866534378965,"O=NC1=C(N[O-])CCCCC1",2.0159000000000002,64.52,155.08260117191,4,1,2,1,4,0,4,11,22,0,1,0,0,1,0,0,0,0,0,1,0.7142857142857143
"B-1091","2h-1-benzopyran-2-one, 7-methoxy-",-3.1221,"COc1ccc2ccc(=O)oc2c1","COc1ccc2c(c1)OC(=O)C=C2",39.09731858250632,"COc1ccc2c(c1)oc(=O)cc2",1.6274,35.53,176.047344116,3,0,1,0,3,0,3,13,21,0,2,1,0,1,0,0,1,1,0,0,0.1
"B-1092","1,2-propanediol, 3-(2-methoxyphenoxy)-, 1-carbam",-1.5251,"COc1ccccc1OCC(O)COC(N)=O","COc1ccccc1OCC(O)COC(N)=O",30.87027397496424,"COc1ccccc1OCC(O)COC(=O)N",0.5302000000000002,91.00999999999999,241.09502258,6,3,6,2,5,1,6,17,32,1,1,1,0,0,0,0,0,1,0,0,0.36363636363636365
"B-1096","1,3-benzenediol, 4-pentyl-",-1.9548,"CCCCCc1ccc(O)cc1O","CCCCCc1ccc(O)cc1O",13.99170401596902,"CCCCCc1ccc(O)cc1O",2.830500000000002,40.46,180.115029752,2,2,4,2,2,0,2,13,29,0,1,1,0,0,0,0,0,1,0,0,0.45454545454545453
"B-1097","isovaleryl diethylamide",-0.5946,"CCN(CC)C(=O)CC(C)C","CCN(CC)C(=O)CC(C)C",-12.292181360573915,"CCN(CC)C(=O)CC(C)C",1.9008999999999998,20.310000000000002,157.146664228,2,0,4,0,1,1,2,11,30,0,0,0,0,0,0,0,0,0,0,0,0.8888888888888888
"B-1098","dmtt (dazomet)",-1.7331,"CN1C[NH+](C)CSC1=S","CN1C[NH+](C)CSC1=S",-116.43516858763945,"CN1C[NH+](C)CSC1=S",-0.6203999999999996,7.680000000000001,163.03581677209,2,1,0,1,2,0,4,9,20,1,1,0,1,1,0,1,1,0,0,0,0.8
"B-1100","n,n-dimethylthiourea",0.9823,"CNC(=S)NC","CNC(=S)NC",-18.908669663053608,"CNC(=S)NC",-0.28990000000000027,24.06,104.04081925599999,2,2,0,2,1,0,3,6,14,0,0,0,0,0,0,0,0,0,0,0,0.6666666666666666
"B-1102","butyl malonic acid",0.4369,"CCCCC(C(=O)[O-])C(=O)[O-]","CCCCC(C(=O)[O-])C(=O)[O-]",42.24393075364832,"CCCCC(C(=O)[O-])C(=O)[O-]",-1.7073999999999987,80.25999999999999,158.05900595982,4,0,5,0,4,0,4,11,21,0,0,0,0,0,0,0,0,0,0,0,0.7142857142857143
"B-1103","m-cymene",-3.4994,"Cc1cccc(C(C)C)c1","Cc1cccc(C(C)C)c1",14.848256227291325,"Cc1cccc(C(C)C)c1",3.1184200000000013,0,134.109550448,0,0,1,0,0,0,0,10,24,0,1,1,0,0,0,0,0,1,0,0,0.4
"B-1105","digallic acid",-2.8092,"O=C([O-])c1cc(O)c(O)c(OC(=O)c2cc(O)c(O)c(O)c2)c1","O=C([O-])c1cc(O)c(O)c(OC(=O)c2cc(O)c(O)c(O)c2)c1",47.17779783476371,"O=C([O-])c1cc(O)c(O)c(OC(=O)c2cc(O)c(O)c(O)c2)c1",-0.20270000000000016,167.58,321.02520544791,9,5,3,5,9,0,9,23,32,0,2,2,0,0,0,0,0,2,0,0,0
"B-1106","4-ethylpyridine",-0.0006,"CCc1ccncc1","CCc1ccncc1",21.517916859286323,"CCc1ccncc1",1.644,12.89,107.073499288,1,0,1,0,1,0,1,8,17,0,1,1,0,0,1,0,0,0,0,0,0.2857142857142857
"B-1109","l-tyrosine, n-methyl-",-2.1325,"C[NH2+][C@@H](Cc1ccc(O)cc1)C(=O)[O-]","C[NH2+][C@@H](Cc1ccc(O)cc1)C(=O)[O-]",-39.221418205961534,"C[NH2+][C@@H](Cc1ccc(O)cc1)C(=O)[O-]",-1.7535999999999985,76.97,195.089543276,4,3,4,2,3,0,4,14,27,1,1,1,0,0,0,0,0,1,0,0,0.3
"B-1111","butyl cinnamate",-1.6112,"CCCCOC(=O)C=Cc1ccccc1","CCCCOC(=O)C=Cc1ccccc1",11.920902225805976,"CCCCOC(=O)C=Cc1ccccc1",3.0431000000000017,26.3,204.115029752,2,0,5,0,2,0,2,15,31,0,1,1,0,0,0,0,0,1,0,0,0.3076923076923077
"B-1112","benzyl methyl ether",-1.6098,"COCc1ccccc1","COCc1ccccc1",10.6403421114025,"COCc1ccccc1",1.8330000000000002,9.23,122.07316494,1,0,2,0,1,0,1,9,19,0,1,1,0,0,0,0,0,1,0,0,0.25
"B-1113","c.i. disperse black 3",-4.594,"CN(C)c1ccc(N=Nc2ccc(N)cc2)cc1","CN(C)c1ccc(N=Nc2ccc(N)cc2)cc1",62.47004738205246,"CN(C)c1ccc(N=Nc2ccc(N)cc2)cc1",3.7502000000000013,53.980000000000004,240.13749651199998,4,2,3,1,4,0,4,18,34,0,2,2,0,0,0,0,0,2,0,0,0.14285714285714285
"B-1114","2-propenoic acid, 3-(2-furanyl)-",-1.8392,"O=C([O-])C=Cc1ccco1","O=C([O-])C=Cc1ccco1",6.053739191781414,"O=C([O-])C=Cc1ccco1",0.04269999999999996,53.269999999999996,137.02441759991,3,0,2,0,3,0,3,10,15,0,1,1,0,0,1,0,0,0,0,0,0
"B-1115","ethyl valerate",-1.7706,"CCCCC(=O)OCC","CCCCC(=O)OCC",-11.01419859761204,"CCCCC(=O)OCC",1.7397,26.3,130.099379688,2,0,4,0,2,0,2,9,23,0,0,0,0,0,0,0,0,0,0,0,0.8571428571428571
"B-1117","2-methylpropyl propanoate",-1.8841,"CCC(=O)OCC(C)C","CCC(=O)OCC(C)C",-9.293364323749326,"CCC(=O)OCC(C)C",1.5956000000000001,26.3,130.099379688,2,0,3,0,2,0,2,9,23,0,0,0,0,0,0,0,0,0,0,0,0.8571428571428571
"B-1123","2,2,4-trimethylpentane",-4.6704,"CC(C)CC(C)(C)C","CC(C)CC(C)(C)C",4.613049724762057,"CC(C)CC(C)(C)C",3.0786000000000016,0,114.14085057599999,0,0,1,0,0,0,0,8,26,0,0,0,0,0,0,0,0,0,0,0,1
"B-1124","t-butyl acetate",-1.1443,"CC(=O)OC(C)(C)C","CC(=O)OC(C)(C)C",-6.962990624292274,"CC(=O)OC(C)(C)C",1.3479999999999999,26.3,116.083729624,2,0,0,0,2,0,2,8,20,0,0,0,0,0,0,0,0,0,0,0,0.8333333333333334
"B-1130","butanoic acid, 3-amino-",0.9867,"CC([NH3+])CC(=O)[O-]","CC([NH3+])CC(=O)[O-]",-118.51682512538214,"CC([NH3+])CC(=O)[O-]",-2.243199999999999,67.77,103.063328528,3,3,2,1,2,0,3,7,16,1,0,0,0,0,0,0,0,0,0,0,0.75
"B-1131","acetoacetic acid",0.991,"CC(=O)CC(=O)[O-]","CC(=O)CC(=O)[O-]",-19.686356740639617,"CC(=O)CC(=O)[O-]",-1.2846,57.2,101.02441759991001,3,0,2,0,3,0,3,7,12,0,0,0,0,0,0,0,0,0,0,0,0.5
"B-1132","thioimidodicarbonic diamide",-1.6996,"NC(=S)NC(N)=S","NC(=S)NC(N)=S",-7.474407242975579,"NC(=S)NC(=S)N",-0.9367999999999999,64.07,134.99248916,3,5,0,3,2,0,5,7,12,0,0,0,0,0,0,0,0,0,0,0,0
"B-1133","2h-pyran-2,4(3h)-dione, 6-methyl-",-1.1185,"CC1=CC(=O)CC(=O)O1","CC1=CC(=O)CC(=O)O1",-1.0709673867665632,"CC1=CC(=O)CC(=O)O1",0.4062,43.370000000000005,126.031694052,3,0,0,0,3,0,3,9,15,0,1,0,0,1,0,0,1,0,0,0,0.3333333333333333
"B-1135","hexanedioic acid, 2-amino-",-1.8648,"[NH3+]C(CCCC(=O)[O-])C(=O)[O-]","[NH3+]C(CCCC(=O)[O-])C(=O)[O-]",-97.49187388309358,"[NH3+]C(CCCC(=O)[O-])C(=O)[O-]",-3.7329999999999988,107.9,160.06153137991,5,3,5,1,4,0,5,11,21,1,0,0,0,0,0,0,0,0,0,0,0.6666666666666666
"B-1136","isobutyl formate",-1.0006,"CC(C)COC=O","CC(C)COC=O",-9.394954540320287,"CC(C)COC=O",0.8154,26.3,102.06807956,2,0,3,0,2,0,2,7,17,0,0,0,0,0,0,0,0,0,0,0,0.8
"B-1141","ethanesulfonic acid, 2-[(aminoiminomethyl)amino]",-0.6321,"NC(N)=[NH+]CCS(=O)(=O)[O-]","NC(N)=[NH+]CCS(=O)(=O)[O-]",-97.41195982869974,"NC(=[NH+]CCS(=O)(=O)[O-])N",-4.114399999999999,123.21000000000001,167.036462148,6,5,3,3,3,0,7,10,19,0,0,0,0,0,0,0,0,0,0,0,0.6666666666666666
"B-1142","isobutyl nitrate",-1.9521,"CC(C)CO[N+](=O)[O-]","CC(C)CO[N+](=O)[O-]",-16.509611658801937,"CC(C)CO[N+](=O)[O-]",0.8507,52.370000000000005,119.058243148,4,0,3,0,3,0,4,8,17,0,0,0,0,0,0,0,0,0,0,0,1
"B-1145","n-methyl butylcarbamate",-1.4403,"CC(C)CCOC(N)=O","CC(C)CCOC(N)=O",-12.425180118350545,"CC(C)CCOC(=O)N",1.1278000000000001,52.32,131.094628656,3,2,3,1,2,1,3,9,22,0,0,0,0,0,0,0,0,0,0,0,0.8333333333333334
"B-1146","1-butanol, 3-methyl-, nitrate",-2.4809,"CC(C)CCO[N+](=O)[O-]","CC(C)CCO[N+](=O)[O-]",-15.310318667918946,"CC(C)CCO[N+](=O)[O-]",1.2408,52.370000000000005,133.073893212,4,0,4,0,3,0,4,9,20,0,0,0,0,0,0,0,0,0,0,0,1
"B-1151","n-hexadecane",-8.4007,"CCCCCCCCCCCCCCCC","CCCCCCCCCCCCCCCC",-1.2669916401161403,"CCCCCCCCCCCCCCCC",6.487600000000007,0,226.26605108799998,0,0,13,0,0,0,0,16,50,0,0,0,0,0,0,0,0,0,0,0,1
"B-1152","n1-(4-so2nh2-ph)sulfanilamide",-2.7592,"Nc1ccc(S(=O)(=O)Nc2ccc(S(N)(=O)=O)cc2)cc1","Nc1ccc(S(=O)(=O)Nc2ccc(S(N)(=O)=O)cc2)cc1",13.14109829484639,"Nc1ccc(S(=O)(=O)Nc2ccc(S(=O)(=O)N)cc2)cc1",0.7169999999999999,132.35,327.034747896,7,5,4,3,5,0,9,21,34,0,2,2,0,0,0,0,0,2,0,0,0
"B-1153","2-hydroxypropanoic acid, methyl ester",0.9825,"COC(=O)C(C)O","COC(=O)C(C)O",12.457403304922886,"COC(=O)C(C)O",-0.45980000000000015,46.53,104.047344116,3,1,1,1,3,0,3,7,15,1,0,0,0,0,0,0,0,0,0,0,0.75
"B-1156","ethyl biscoumacetate",-3.4264,"CCOC(=O)C(c1c([O-])oc2ccccc2c1=O)c1c([O-])oc2ccccc2c1=O","CCOC(=O)C(C1=C([O-])Oc2ccccc2C1=O)C1=C([O-])Oc2ccccc2C1=O",103.0362424984244,"CCOC(=O)C(c1c([O-])oc2ccccc2c1=O)c1c([O-])oc2ccccc2c1=O",0.8600999999999998,125.02000000000001,406.0699645678199,8,0,4,0,8,0,8,30,44,0,4,2,0,2,0,0,2,2,0,0,0.13636363636363635
"B-1157","o-thymotic acid",-3.2883,"Cc1ccc(C(C)C)c(O)c1C(=O)[O-]","Cc1ccc(C(C)C)c(O)c1C(=O)[O-]",32.50899722607788,"Cc1ccc(C(C)C)c(O)c1C(=O)[O-]",1.1875200000000001,60.36,193.08701785591,3,1,2,1,3,0,3,14,27,0,1,1,0,0,0,0,0,1,0,0,0.36363636363636365
"B-1159","amisometradine",-0.9895,"C=C(C)Cn1c(N)cc(=O)n(C)c1=O","C=C(C)CN1C(=O)N(C)C(=O)C=C1N",-94.94718847889708,"C=C(C)Cn1c(=O)n(C)c(=O)cc1N",0.2566000000000003,66.64,195.100776656,5,2,2,1,3,3,5,14,27,0,1,0,0,1,0,0,1,0,0,0,0.3333333333333333
"B-1161","1-nitro-2-naphthol",-2.9758,"O=[N+]([O-])c1c([O-])ccc2ccccc12","O=[N+]([O-])c1c([O-])ccc2ccccc12",79.21056556271463,"O=[N+]([O-])c1c([O-])ccc2ccccc12",1.8215999999999997,66.2,188.03531663191,4,0,1,0,3,0,4,14,20,0,2,2,0,0,0,0,0,2,0,0,0
"B-1164","9-methyl-9-azabicyclo[3.3.1]nonan-3-one",0.4167,"C[NH+]1C2CCCC1CC(=O)C2","C[NH+]1C2CCCC1CC(=O)C2",-5.975403885497844,"C[NH+]1C2CCCC1CC(=O)C2",-0.2149000000000003,21.51,154.12264055209,2,1,0,1,1,0,2,11,27,2,2,0,2,2,0,2,2,0,0,0,0.8888888888888888
"B-1165","3-pyridinecarboxylic acid, hydrazide",-0.1372,"NNC(=O)c1cccnc1","NNC(=O)c1cccnc1",15.809752144770107,"NNC(=O)c1cccnc1",-0.3149000000000006,68.00999999999999,137.058911844,4,3,1,2,3,1,4,10,17,0,1,1,0,0,1,0,0,0,0,0,0
"B-1166","5-nitro-2-propoxyaniline",-3.1592,"CCCOc1ccc([N+](=O)[O-])cc1N","CCCOc1ccc([N+](=O)[O-])cc1N",31.34211513312517,"CCCOc1ccc([N+](=O)[O-])cc1N",1.9658,78.39,196.084792244,5,2,4,1,4,0,5,14,26,0,1,1,0,0,0,0,0,1,0,0,0.3333333333333333
"B-1167","methyl oxalate",-0.2919,"COC(=O)C(=O)OC","COC(=O)C(=O)OC",47.98443457090302,"COC(=O)C(=O)OC",-0.6676000000000002,52.60000000000001,118.02660867200001,4,0,0,0,4,0,4,8,14,0,0,0,0,0,0,0,0,0,0,0,0.5
"B-1172","methyldopa",-1.3247,"C[C@]([NH3+])(Cc1ccc(O)c(O)c1)C(=O)[O-]","C[C@]([NH3+])(Cc1ccc(O)c(O)c1)C(=O)[O-]",-54.78119804899975,"C[C@]([NH3+])(Cc1ccc(O)c(O)c1)C(=O)[O-]",-1.6092000000000006,108.23000000000002,211.084457896,5,5,3,3,4,0,5,15,28,1,1,1,0,0,0,0,0,1,0,0,0.3
"B-1173","maleanilic acid",-2.2815,"O=C([O-])C=CC(=O)Nc1ccccc1","O=C([O-])C=CC(=O)Nc1ccccc1",15.995104916823784,"O=C([O-])C=CC(=O)Nc1ccccc1",-0.06880000000000086,69.22999999999999,190.05096669591,4,1,3,1,3,1,4,14,22,0,1,1,0,0,0,0,0,1,0,0,0
"B-1174","nifuradene",-3.3572,"O=C1NCCN1N=Cc1ccc([N+](=O)[O-])o1","O=C1NCCN1N=Cc1ccc([N+](=O)[O-])o1",63.57297419573106,"O=C1NCCN1N=Cc1ccc([N+](=O)[O-])o1",0.5468999999999997,100.98,224.054554736,8,1,3,1,5,2,8,16,24,0,2,1,1,1,1,1,1,0,0,0,0.25
"B-1175","d-tyrosine",-2.6049,"[NH3+][C@H](Cc1ccc(O)cc1)C(=O)[O-]","[NH3+][C@H](Cc1ccc(O)cc1)C(=O)[O-]",-66.28387730544624,"[NH3+][C@H](Cc1ccc(O)cc1)C(=O)[O-]",-1.7049,88,181.073893212,4,4,3,2,3,0,4,13,24,1,1,1,0,0,0,0,0,1,0,0,0.2222222222222222
"B-1176","dl-tyrosine",-2.6561,"[NH3+]C(Cc1ccc(O)cc1)C(=O)[O-]","[NH3+]C(Cc1ccc(O)cc1)C(=O)[O-]",-66.28387730535123,"[NH3+]C(Cc1ccc(O)cc1)C(=O)[O-]",-1.7049,88,181.073893212,4,4,3,2,3,0,4,13,24,1,1,1,0,0,0,0,0,1,0,0,0.2222222222222222