"ID","Name","Solubility","SMILES Canonical","Smiles (Optimized Geometry)","Energy","Smiles","SlogP","TPSA","ExactMW","NumLipinskiHBA","NumLipinskiHBD","NumRotatableBonds","NumHBD","NumHBA","NumAmideBonds","NumHeteroAtoms","NumHeavyAtoms","NumAtoms","NumStereocenters","NumRings","NumAromaticRings","NumSaturatedRings","NumAliphaticRings","NumAromaticHeterocycles","NumSaturatedHeterocycles","NumAliphaticHeterocycles","NumAromaticCarbocycles","NumSaturatedCarbocycles","NumAliphaticCarbocycles","FractionCSP3"
"A-3548","4,4'-methylenebis(cyclohexylamine)",-1.6240034803,"[NH3+]C1CCC(CC2CCC([NH3+])CC2)CC1","[NH3+]C1CCC(CC2CCC([NH3+])CC2)CC1",56.08584213749338,"[NH3+]C1CCC(CC2CCC([NH3+])CC2)CC1",0.9778999999999995,55.28,212.22415173617998,2,6,2,2,0,0,2,15,43,0,2,0,2,2,0,0,0,0,2,2,1
"A-3549","N-(2,5-dimethoxyphenyl)acetamide",-1.5915498548,"COc1ccc(OC)c(NC(C)=O)c1","COc1ccc(OC)c(NC(C)=O)c1",29.518433770496085,"COc1ccc(OC)c(NC(=O)C)c1",1.6622,47.56,195.089543276,4,1,3,1,3,1,4,14,27,0,1,1,0,0,0,0,0,1,0,0,0.3
"A-3558","2-aminopyridin-3-ol",-0.3461061519,"Nc1ncccc1O","Nc1ncccc1O",17.887947865915834,"Nc1ncccc1O",0.3694,59.14,110.048012812,3,3,0,2,3,0,3,8,14,0,1,1,0,0,1,0,0,0,0,0,0
"A-3560","1-ethenylazepan-2-one",-0.4507860761,"C=CN1CCCCCC1=O","C=CN1CCCCCC1=O",-0.015578262361563233,"C=CN1CCCCCC1=O",1.5325,20.310000000000002,139.099714036,2,0,1,0,1,1,2,10,23,0,1,0,1,1,0,1,1,0,0,0,0.625
"A-3561","3-methyl-4-oxobut-2-en-1-yl acetate",-0.4607939818,"CC(=O)OCC=C(C)C=O","CC(=O)OCC=C(C)C=O",-19.550530040074797,"CC(=O)OCC=C(C)C=O",0.6947000000000001,43.370000000000005,142.06299418,3,0,3,0,3,0,3,10,20,0,0,0,0,0,0,0,0,0,0,0,0.42857142857142855
"A-3566","2,2-bis(hydroxymethyl)butanoic acid",0.5168038544,"CCC(CO)(CO)C(=O)[O-]","CCC(CO)(CO)C(=O)[O-]",-21.010245182415556,"CCC(CO)(CO)C(=O)[O-]",-1.8826999999999994,80.59,147.06628241191,4,2,4,2,4,0,4,10,21,0,0,0,0,0,0,0,0,0,0,0,0.8333333333333334
"A-3582","3-methylbutanoic acid",-0.3279248515,"CC(C)CC(=O)[O-]","CC(C)CC(=O)[O-]",6.249023175255891,"CC(C)CC(=O)[O-]",-0.21760000000000002,40.129999999999995,101.06080310791,2,0,2,0,2,0,2,7,16,0,0,0,0,0,0,0,0,0,0,0,0.8
"A-3596","(2S)-3-methyl-2-[pentanoyl-[[4-[2-(2H-tetrazol-5-yl)phenyl]phenyl]methyl]amino]butanoic acid",-2.7359260939,"CCCCC(=O)N(Cc1ccc(-c2ccccc2-c2nn[n-]n2)cc1)[C@H](C(=O)[O-])C(C)C","CCCCC(=O)N(Cc1ccc(-c2ccccc2-c2nn[n-]n2)cc1)[C@H](C(=O)[O-])C(C)C",107.94761821128137,"CCCCC(=O)N(Cc1ccc(c2ccccc2c2nn[n-]n2)cc1)[C@H](C(=O)[O-])C(C)C",2.4561,113.21000000000001,433.21248688382,8,0,10,0,6,1,8,32,59,1,3,3,0,0,1,0,0,2,0,0,0.375
"A-3599","2-[(2-hydroxyethyl)(phenyl)amino]ethan-1-ol",-0.5833809314,"OCCN(CCO)c1ccccc1","OCCN(CCO)c1ccccc1",57.706697336296976,"OCCN(CCO)c1ccccc1",0.47759999999999986,43.7,181.11027872,3,2,5,2,3,0,3,13,28,0,1,1,0,0,0,0,0,1,0,0,0.4
"A-3601","ethyl methyl carbonate",-0.3444506814,"CCOC(=O)OC","CCOC(=O)OC",-36.52661521909244,"CCOC(=O)OC",0.7893000000000001,35.53,104.047344116,3,0,1,0,3,0,3,7,15,0,0,0,0,0,0,0,0,0,0,0,0.75
"A-3611","butyl 2-hydroxyacetate",-0.4583389122,"CCCCOC(=O)CO","CCCCOC(=O)CO",11.187174460630143,"CCCCOC(=O)CO",0.322,46.53,132.078644244,3,1,4,1,3,0,3,9,21,0,0,0,0,0,0,0,0,0,0,0,0.8333333333333334
"A-3615","benzene-1,2-diol",0.6123418909,"Oc1ccccc1O","Oc1ccccc1O",15.00895962017774,"Oc1ccccc1O",1.0977999999999999,40.46,110.036779432,2,2,0,2,2,0,2,8,14,0,1,1,0,0,0,0,0,1,0,0,0
"A-3621","4-{2-[(2-methylprop-2-enoyl)oxy]ethoxy}-4-oxobutanoic acid",-0.706708916,"C=C(C)C(=O)OCCOC(=O)CCC(=O)[O-]","C=C(C)C(=O)OCCOC(=O)CCC(=O)[O-]",-39.60480937678842,"C=C(C)C(=O)OCCOC(=O)CCC(=O)[O-]",-0.8209999999999993,92.73,229.07176171591001,6,0,7,0,6,0,6,16,29,0,0,0,0,0,0,0,0,0,0,0,0.5
"A-3623","2-methylbutanoic acid",-0.3559535751,"CCC(C)C(=O)[O-]","CCC(C)C(=O)[O-]",9.580801218548348,"CCC(C)C(=O)[O-]",-0.21760000000000002,40.129999999999995,101.06080310791,2,0,2,0,2,0,2,7,16,1,0,0,0,0,0,0,0,0,0,0,0.8
"A-3642","thymidine",-0.7420620877,"Cc1cn(C2CC(O)C(CO)O2)c(=O)[nH]c1=O","CC1=CN(C2CC(O)C(CO)O2)C(=O)NC1=O",-55.49722480125709,"Cc1cn(C2CC(O)C(CO)O2)c(=O)[nH]c1=O",-1.0898,99.1,242.090271548,7,3,2,3,5,3,7,17,31,3,2,0,1,2,0,1,2,0,0,0,0.6
"A-3651","5-(aminomethyl)-2-methylpyrimidin-4-amine",0.4903065627,"Cc1ncc(C[NH3+])c(N)n1","Cc1ncc(C[NH3+])c(N)n1",-59.101232122320354,"Cc1ncc(C[NH3+])c(N)n1",-0.8908799999999995,79.44,139.09782277208998,4,5,1,2,3,0,4,10,21,0,1,1,0,0,1,0,0,0,0,0,0.3333333333333333
"A-3653","(3-{[3-(dimethylamino)propyl]amino}propyl)dimethylamine",0.3558508036,"C[NH+](C)CCC[NH2+]CCC[NH+](C)C","C[NH+](C)CCC[NH2+]CCC[NH+](C)C",122.56759456672111,"C[NH+](C)CCC[NH2+]CCC[NH+](C)C",-3.380999999999995,25.490000000000002,190.22667715627,3,4,8,3,0,0,3,13,41,0,0,0,0,0,0,0,0,0,0,0,1
"A-3661","1-phenylethanamine",-0.4601924093,"C[C@H]([NH3+])c1ccccc1","C[C@H]([NH3+])c1ccccc1",15.729072303577215,"C[C@H]([NH3+])c1ccccc1",0.9895,27.64,122.09642580408999,1,3,1,1,0,0,1,9,21,1,1,1,0,0,0,0,0,1,0,0,0.25
"A-3673","(2S)-2-amino-4-carbamoylbutanoic acid",-0.5483114194,"NC(=O)CC[C@H]([NH3+])C(=O)[O-]","NC(=O)CC[C@H]([NH3+])C(=O)[O-]",-78.82835499339915,"NC(=O)CC[C@H]([NH3+])C(=O)[O-]",-3.3876999999999997,110.86000000000001,146.06914218,5,5,4,2,3,1,5,10,20,1,0,0,0,0,0,0,0,0,0,0,0.6
"A-3674","(2S)-2-amino-3-methylpentanoic acid",-0.5029538568,"CC[C@H](C)[C@H]([NH3+])C(=O)[O-]","CC[C@H](C)[C@H]([NH3+])C(=O)[O-]",-61.27969230808097,"CC[C@H](C)[C@H]([NH3+])C(=O)[O-]",-1.6070999999999982,67.77,131.094628656,3,3,3,1,2,0,3,9,22,2,0,0,0,0,0,0,0,0,0,0,0.8333333333333334
"A-3690","1-[2-(2-butoxy-1-methylethoxy)-1-methylethoxy]propan-1-ol",-0.790860844,"CCOCCCC(C)OCCOCC(C)CO","CCOCCCC(C)OCCOCC(C)CO",14.749016516606947,"CCOCCCC(C)OCCOCC(C)CO",1.8531999999999997,47.92,248.198759376,4,1,12,1,4,0,4,17,45,2,0,0,0,0,0,0,0,0,0,0,1
"A-3691","(1R)-1-phenylethan-1-amine",-0.4813817083,"CC([NH3+])c1ccccc1","CC([NH3+])c1ccccc1",15.729072303918564,"CC([NH3+])c1ccccc1",0.9895,27.64,122.09642580408999,1,3,1,1,0,0,1,9,21,1,1,1,0,0,0,0,0,1,0,0,0.25
"A-3694","2-[(butylcarbamoyl)oxy]ethyl prop-2-enoate",-1.6348405969,"C=CC(=O)OCCOC(=O)NCCCC","C=CC(=O)OCCOC(=O)NCCCC",-39.83616475009795,"C=CC(=O)OCCOC(=O)NCCCC",1.2419,64.63,215.115758024,5,1,7,1,4,1,5,15,32,0,0,0,0,0,0,0,0,0,0,0,0.6
"A-3700","3,5-dimethylaniline",-1.4022004623,"Cc1cc(C)cc(N)c1","Cc1cc(C)cc(N)c1",13.090670996140748,"Cc1cc(C)cc(N)c1",1.8856399999999998,26.02,121.08914935199999,1,2,0,1,1,0,1,9,20,0,1,1,0,0,0,0,0,1,0,0,0.25
"A-3702","1,3,3-trimethyl-5-oxocyclohexane-1-carbonitrile",-1.5404977204,"CC1(C)CC(=O)CC(C)(C#N)C1","CC1(C)CC(=O)CC(C)(C#N)C1",-0.6166380116550911,"CC1(C)CC(=O)CC(C)(C#N)C1",2.2954800000000004,40.86,165.1153641,2,0,0,0,2,0,2,12,27,1,1,0,1,1,0,0,0,0,1,1,0.8
"A-3706","amino(phenyl)acetic acid",-1.5082784057,"[NH3+][C@@H](C(=O)[O-])c1ccccc1","[NH3+][C@@H](C(=O)[O-])c1ccccc1",-32.29927459996951,"[NH3+][C@@H](C(=O)[O-])c1ccccc1",-1.2804999999999995,67.77,151.063328528,3,3,2,1,2,0,3,11,20,1,1,1,0,0,0,0,0,1,0,0,0.125
"A-3712","4-amino-N-tert-butyl-5-oxo-3-(propan-2-yl)-4,5-dihydro-1H-1,2,4-triazole-1-carboxamide",-1.7188473974,"CC(C)c1nn(C(=O)NC(C)(C)C)c(=O)n1N","CC(C)C1=NN(C(=O)NC(C)(C)C)C(=O)N1N",14.870275042293004,"CC(C)c1nn(C(=O)NC(C)(C)C)c(=O)n1N",1.0753,91.03,241.153874848,7,3,1,2,4,4,7,17,36,0,1,0,0,1,0,0,1,0,0,0,0.7
"A-3713","4-(4-hydroxyphenyl)butan-2-one",-1.5520409413,"CC(=O)CCc1ccc(O)cc1","CC(=O)CCc1ccc(O)cc1",11.694102025664595,"CC(=O)CCc1ccc(O)cc1",1.9138,37.3,164.083729624,2,1,3,1,2,0,2,12,24,0,1,1,0,0,0,0,0,1,0,0,0.3
"A-3720","2,2'-({4-[(2-hydroxyethyl)amino]-3-nitrophenyl}imino)diethanol",-1.7953855716,"O=[N+]([O-])c1cc(N(CCO)CCO)ccc1NCCO","O=[N+]([O-])c1cc(N(CCO)CCO)ccc1NCCO",87.055373016891,"O=[N+]([O-])c1cc(N(CCO)CCO)ccc1NCCO",-0.21000000000000008,119.10000000000001,285.132470708,8,4,9,4,7,0,8,20,39,0,1,1,0,0,0,0,0,1,0,0,0.5
"A-3733","methyl 3-methylbut-2-enoate",-1.4140004112,"COC(=O)C=C(C)C","COC(=O)C=C(C)C",4.1170507969936105,"COC(=O)C=C(C)C",1.1256,26.3,114.06807956,2,0,1,0,2,0,2,8,18,0,0,0,0,0,0,0,0,0,0,0,0.5
"A-3737","3-(3-methyl-5-oxo-4,5-dihydro-1H-pyrazol-1-yl)benzene-1-sulfonic acid",-1.7718215434,"CC1=NN(c2cccc(S(=O)(=O)[O-])c2)C(=O)C1","CC1=NN(c2cccc(S(=O)(=O)[O-])c2)C(=O)C1",34.39595079630458,"CC1=NN(c2cccc(S(=O)(=O)[O-])c2)C(=O)C1",0.7033000000000001,89.87,253.02885134791,6,0,2,0,5,1,7,17,26,0,2,1,0,1,0,0,1,1,0,0,0.2
"A-3738","3-methylbut-2-en-1-yl acetate",-1.4743213171,"CC(=O)OCC=C(C)C","CC(=O)OCC=C(C)C",-11.951440737183162,"CC(=O)OCC=C(C)C",1.5157,26.3,128.083729624,2,0,2,0,2,0,2,9,21,0,0,0,0,0,0,0,0,0,0,0,0.5714285714285714
"A-3739","N,N-dimethyloctanamide",-1.6002483409,"CCCCCCCC(=O)N(C)C","CCCCCCCC(=O)N(C)C",-17.191040514036686,"CCCCCCCC(=O)N(C)C",2.4351000000000003,20.310000000000002,171.162314292,2,0,6,0,1,1,2,12,33,0,0,0,0,0,0,0,0,0,0,0,0.9
"A-3741","heptan-2-one",-1.4333383705,"CCCCCC(C)=O","CCCCCC(C)=O",1.4316171963855697,"CCCCCC(=O)C",2.1557000000000004,17.07,114.104465068,1,0,4,0,1,0,1,8,22,0,0,0,0,0,0,0,0,0,0,0,0.8571428571428571
"A-3742","2-methylpentanal",-1.3774493615,"CCCC(C)C=O","CCCC(C)C=O",1.2743587790364774,"CCCC(C)C=O",1.6215,17.07,100.088815004,1,0,3,0,1,0,1,7,19,1,0,0,0,0,0,0,0,0,0,0,0.8333333333333334
"A-3744","hexahydro-2-benzofuran-1,3-dione",-1.5647364969,"O=C1OC(=O)C2CCCCC12","O=C1OC(=O)C2CCCCC12",-21.9957345100789,"O=C1OC(=O)C2CCCCC12",0.8761999999999999,43.370000000000005,154.06299417999998,3,0,0,0,3,0,3,11,21,2,2,0,2,2,0,1,1,0,1,1,0.75
"A-3746","2,2-bis[(prop-2-en-1-yloxy)methyl]butan-1-ol",-1.7182484471,"C=CCOCC(CC)(CO)COCC=C","C=CCOCC(CC)(CO)COCC=C",-5.854580980756486,"C=CCOCC(CC)(CO)COCC=C",1.7803,38.69,214.156894564,3,1,10,1,3,0,3,15,37,0,0,0,0,0,0,0,0,0,0,0,0.6666666666666666
"A-3749","N-butylbutan-1-amine",-1.5039654481,"CCCC[NH2+]CCCC","CCCC[NH2+]CCCC",0.30837274666337583,"CCCC[NH2+]CCCC",1.1500000000000001,16.61,130.15902606008999,1,2,6,1,0,0,1,9,29,0,0,0,0,0,0,0,0,0,0,0,1
"A-3751","(1-methyl-1,2-ethanediyl)bis[oxy(methyl-2,1-ethanediyl)] diacrylate",-1.8755690909,"C=CC(=O)OC(C)COCC(C)OCC(C)OC(=O)C=C","C=CC(=O)OC(C)COCC(C)OCC(C)OC(=O)C=C",25.81581131302473,"C=CC(=O)OC(C)COCC(C)OCC(C)OC(=O)C=C",1.6434999999999997,71.06,300.157288488,6,0,11,0,6,0,6,21,45,3,0,0,0,0,0,0,0,0,0,0,0.6
"A-3754","2-(dibutylamino)ethan-1-ol",-1.6367385714,"CCCC[NH+](CCO)CCCC","CCCC[NH+](CCO)CCCC",9.55308203746618,"CCCC[NH+](CCO)CCCC",0.4638000000000002,24.67,174.18524080809,2,2,8,2,1,0,2,12,36,0,0,0,0,0,0,0,0,0,0,0,1
"A-3762","3-amino-4-methylbenzamide",-0.5767319197,"Cc1ccc(C(N)=O)cc1N","Cc1ccc(C(N)=O)cc1N",17.161771216320176,"Cc1ccc(C(=O)N)cc1N",0.6761200000000002,69.11,150.07931294,3,4,1,2,2,1,3,11,21,0,1,1,0,0,0,0,0,1,0,0,0.125
"A-3765","1,3-thiazol-5-ylmethanol",0.5257355357,"OCc1cncs1","OCc1cncs1",-3.6047998226430398,"OCc1cncs1",0.6354,33.120000000000005,115.00918478,2,1,1,1,3,0,3,7,12,0,1,1,0,0,1,0,0,0,0,0,0.25
"A-3773","4-methylbenzene-1,3-diamine",-0.5071845321,"Cc1ccc(N)cc1N","Cc1ccc(N)cc1N",12.288517539739678,"Cc1ccc(N)cc1N",1.1594200000000001,52.04,122.08439831999999,2,4,0,2,2,0,2,9,19,0,1,1,0,0,0,0,0,1,0,0,0.14285714285714285
"A-3774","diaminotoluene",-0.5071845321,"Cc1cc(N)ccc1N","Cc1cc(N)ccc1N",13.629186022956688,"Cc1cc(N)ccc1N",1.1594200000000001,52.04,122.08439831999999,2,4,0,2,2,0,2,9,19,0,1,1,0,0,0,0,0,1,0,0,0.14285714285714285
"A-3786","(2Z)-4-butoxy-4-oxobut-2-enoic acid",-0.6677809794,"CCCCOC(=O)C=CC(=O)[O-]","CCCCOC(=O)C=CC(=O)[O-]",-7.43837053555722,"CCCCOC(=O)C=CC(=O)[O-]",-0.3642000000000001,66.43,171.06628241191,4,0,5,0,4,0,4,12,23,0,0,0,0,0,0,0,0,0,0,0,0.5
"A-3788","5-[(2-hydroxyethyl)amino]-2-methylphenol",-0.6550553282,"Cc1ccc(NCCO)cc1O","Cc1ccc(NCCO)cc1O",26.443032614479602,"Cc1ccc(NCCO)cc1O",1.1048199999999997,52.489999999999995,167.094628656,3,3,3,3,3,0,3,12,25,0,1,1,0,0,0,0,0,1,0,0,0.3333333333333333
"A-3791","(2S)-4-hydroxypyrrolidine-2-carboxylic acid",0.4399221153,"O=C([O-])C1CC(O)C[NH2+]1","O=C([O-])C1CC(O)C[NH2+]1",-55.49535530231868,"O=C([O-])C1CC(O)C[NH2+]1",-3.567099999999998,76.97,131.058243148,4,3,1,2,3,0,4,9,18,2,1,0,1,1,0,1,1,0,0,0,0.8
"A-3794","ethyl 2-methylbut-3-enoate",-1.5763108557,"C=CC(C)C(=O)OCC","C=CC(C)C(=O)OCC",-0.06828302251663665,"C=CC(C)C(=O)OCC",1.3716,26.3,128.083729624,2,0,3,0,2,0,2,9,21,1,0,0,0,0,0,0,0,0,0,0,0.5714285714285714
"A-3795","N-methylhydrazinecarbothioamide",-0.465572855,"CNC(=S)N[NH3+]","CNC(=S)N[NH3+]",-21.913344274404977,"CNC(=S)N[NH3+]",-1.7627999999999995,51.7,106.04334467608999,3,5,0,3,1,0,4,6,14,0,0,0,0,0,0,0,0,0,0,0,0.5
"A-3799","naphthalene-2-sulfonic acid",0.230443278,"O=S(=O)([O-])c1ccc2ccccc2c1","O=S(=O)([O-])c1ccc2ccccc2c1",27.848166511134878,"O=S(=O)([O-])c1ccc2ccccc2c1",1.7439000000000002,57.2,207.01213866391,3,0,1,0,3,0,4,14,21,0,2,2,0,0,0,0,0,2,0,0,0
"A-3804","dimethyl 2-methylenesuccinate",-0.653770318,"C=C(CC(=O)OC)C(=O)OC","C=C(CC(=O)OC)C(=O)OC",-32.98996964843971,"C=C(CC(=O)OC)C(=O)OC",0.27869999999999995,52.60000000000001,158.0579088,4,0,3,0,4,0,4,11,21,0,0,0,0,0,0,0,0,0,0,0,0.42857142857142855
"A-3805","2-(2-phenoxyethoxy)ethan-1-ol",-0.7165256146,"OCCOCCOc1ccccc1","OCCOCCOc1ccccc1",41.89324281273632,"OCCOCCOc1ccccc1",1.0743000000000003,38.69,182.094294308,3,1,6,1,3,0,3,13,27,0,1,1,0,0,0,0,0,1,0,0,0.4
"A-3806","7-hydroxy-3,7-dimethyloctanal",-0.6921365673,"CC(CC=O)CCCC(C)(C)O","CC(CC=O)CCCC(C)(C)O",3.9526502790942244,"CC(CC=O)CCCC(C)(C)O",2.1527000000000007,37.3,172.14632988,2,1,6,1,2,0,2,12,32,1,0,0,0,0,0,0,0,0,0,0,0.9
"A-3807","N-propylpropan-1-amine",-0.461082427,"CCC[NH2+]CCC","CCC[NH2+]CCC",1.4363102974057962,"CCC[NH2+]CCC",0.36979999999999974,16.61,102.12772593208999,1,2,4,1,0,0,1,7,23,0,0,0,0,0,0,0,0,0,0,0,1
"A-3821","2-ethyl-3-methylpyrazine",0.4445107883,"CCc1nccnc1C","CCc1nccnc1C",62.5685618291032,"CCc1nccnc1C",1.34742,25.78,122.08439831999999,2,0,1,0,2,0,2,9,19,0,1,1,0,0,1,0,0,0,0,0,0.42857142857142855
"A-3825","N-(prop-2-enamidomethyl)prop-2-enamide",-0.6552426764,"C=CC(=O)NCNC(=O)C=C","C=CC(=O)NCNC(=O)C=C",-49.228925754370735,"C=CC(=O)NCNC(=O)C=C",-0.4517000000000002,58.2,154.07422756,4,2,4,2,2,2,4,11,21,0,0,0,0,0,0,0,0,0,0,0,0.14285714285714285
"A-3831","Methyl morpholine oxide",0.4563099285,"C[N+]1([O-])CCOCC1","C[N+]1([O-])CCOCC1",26.25366446746315,"C[N+]1([O-])CCOCC1",-0.039000000000000146,32.29,117.078978592,3,0,0,0,2,0,3,8,19,0,1,0,1,1,0,1,1,0,0,0,1
"A-3842","4-fluoroaniline",-0.5272743845,"Nc1ccc(F)cc1","Nc1ccc(F)cc1",12.805065153254606,"Nc1ccc(F)cc1",1.4079,26.02,111.048427412,1,2,0,1,1,0,2,8,14,0,1,1,0,0,0,0,0,1,0,0,0
"A-3847","3-acetyloxolan-2-one",0.3975093207,"CC(=O)C1CCOC1=O","CC(=O)C1CCOC1=O",-23.86938274201075,"CC(=O)C1CCOC1=O",0.13850000000000007,43.370000000000005,128.047344116,3,0,1,0,3,0,3,9,17,1,1,0,1,1,0,1,1,0,0,0,0.6666666666666666
"A-3854","4-hydroxy-2,5-dimethyl-2,3-dihydrofuran-3-one",0.3906698962,"CC1=C(O)C(=O)C(C)O1","CC1=C(O)C(=O)C(C)O1",31.81975863722186,"CC1=C(O)C(=O)C(C)O1",0.7637,46.53,128.047344116,3,1,0,1,3,0,3,9,17,1,1,0,0,1,0,0,1,0,0,0,0.5
"A-3858","2,2,4-trimethylpentane-1,3-diol",-0.6667259262,"CC(C)C(O)C(C)(C)CO","CC(C)C(O)C(C)(C)CO",10.2005145950539,"CC(C)C(O)C(C)(C)CO",1.0218,40.46,146.130679816,2,2,3,2,2,0,2,10,28,1,0,0,0,0,0,0,0,0,0,0,1
"A-3865","2-Ethylhexyl (2S)-2-hydroxypropanoate",-2.6735257097,"CCCCC(CC)COC(=O)[C@H](C)O","CCCCC(CC)COC(=O)[C@H](C)O",20.026393684870662,"CCCCC(CC)COC(=O)[C@H](C)O",2.1268000000000007,46.53,202.156894564,3,1,7,1,3,0,3,14,36,2,0,0,0,0,0,0,0,0,0,0,0.9090909090909091
"A-3872","4-methyl-3a,4,7,7a-tetrahydro-2-benzofuran-1,3-dione",-0.7362684616,"CC1C=CCC2C(=O)OC(=O)C12","CC1C=CCC2C(=O)OC(=O)C12",-35.637833705897,"CC1C=CCC2C(=O)OC(=O)C12",0.8982,43.370000000000005,166.06299418,3,0,0,0,3,0,3,12,22,3,2,0,1,2,0,1,1,0,0,1,0.5555555555555556
"A-3873","N-isopropyl-2-methylacrylamide",-0.6201428843,"C=C(C)C(=O)NC(C)C","C=C(C)C(=O)NC(C)C",-17.861050046844298,"C=C(C)C(=O)NC(C)C",1.0871,29.1,127.099714036,2,1,2,1,1,1,2,9,22,0,0,0,0,0,0,0,0,0,0,0,0.5714285714285714
"A-3875","2-(2-ethoxyethoxy)-2-methylpropane",-0.6879152253,"CCOCCOC(C)(C)C","CCOCCOC(C)(C)C",18.135715345926602,"CCOCCOC(C)(C)C",1.838,18.46,146.130679816,2,0,4,0,2,0,2,10,28,0,0,0,0,0,0,0,0,0,0,0,1
"A-3876","3-methoxybutyl acetate",-0.6877845282,"COC(C)CCOC(C)=O","COC(C)CCOC(C)=O",-9.060881084878076,"COC(C)CCOC(=O)C",0.9744999999999999,35.53,146.094294308,3,0,4,0,3,0,3,10,24,1,0,0,0,0,0,0,0,0,0,0,0.8571428571428571
"A-3878","carbamimidoylsulfinic acid",-0.5567928158,"NC(=[NH2+])S(=O)[O-]","NC(=[NH2+])S(=O)[O-]",-24.48686357249084,"NC(=[NH2+])S(=O)[O-]",-3.0607,91.74000000000001,107.999348368,4,4,0,2,2,0,5,6,10,1,0,0,0,0,0,0,0,0,0,0,0
"A-3880","tert-butyl 2-methylpropaneperoxoate",-1.6070025668,"CC(C)C(=O)OOC(C)(C)C","CC(C)C(=O)OOC(C)(C)C",21.611577700776422,"CC(C)C(=O)OOC(C)(C)C",1.9157,35.53,160.109944372,3,0,2,0,3,0,3,11,27,0,0,0,0,0,0,0,0,0,0,0,0.875
"A-3881","(2,2-dimethoxyethyl)benzene",-1.6296186709,"COC(Cc1ccccc1)OC","COC(Cc1ccccc1)OC",9.919776942461516,"COC(Cc1ccccc1)OC",1.8479999999999999,18.46,166.099379688,2,0,4,0,2,0,2,12,26,0,1,1,0,0,0,0,0,1,0,0,0.4
"A-3883","2H,4H,4aH,5H,9bH-indeno[1,2-d][1,3]dioxine",-1.6560932729,"c1ccc2c(c1)CC1COCOC21","c1ccc2c(c1)CC1COCOC21",-6.840952455393452,"c1ccc2c(c1)CC1COCOC21",1.9042999999999999,18.46,176.083729624,2,0,0,0,2,0,2,13,25,2,3,1,1,2,0,1,1,1,0,1,0.45454545454545453
"A-3884","3-[(4-hydroxy-3-methoxyphenyl)methyl]pentane-2,4-dione",-1.7863659491,"COc1cc(CC(C(C)=O)C(C)=O)ccc1O","COc1cc(CC(C(C)=O)C(C)=O)ccc1O",11.793197011621261,"COc1cc(CC(C(=O)C)C(=O)C)ccc1O",1.7374999999999998,63.60000000000001,236.104858992,4,1,5,1,4,0,4,17,33,0,1,1,0,0,0,0,0,1,0,0,0.38461538461538464
"A-3892","2-(2-{2-[(2-methylprop-2-enoyl)oxy]ethoxy}ethoxy)ethyl 2-methylprop-2-enoate",-1.9005552518,"C=C(C)C(=O)OCCOCCOCCOC(=O)C(=C)C","C=C(C)C(=O)OCCOCCOCCOC(=O)C(=C)C",4.643439444697353,"C=C(C)C(=O)OCCOCCOCCOC(=O)C(=C)C",1.2582,71.06,286.141638424,6,0,11,0,6,0,6,20,42,0,0,0,0,0,0,0,0,0,0,0,0.5714285714285714
"A-3893","4-[(4-amino-3-methylcyclohexyl)methyl]-2-methylcyclohexan-1-amine",-1.8210383613,"CC1CC(CC2CCC([NH3+])C(C)C2)CCC1[NH3+]","CC1CC(CC2CCC([NH3+])C(C)C2)CCC1[NH3+]",65.10102367443561,"CC1CC(CC2CCC([NH3+])C(C)C2)CCC1[NH3+]",1.4699000000000013,55.28,240.25545186417997,2,6,2,2,0,0,2,17,49,6,2,0,2,2,0,0,0,0,2,2,1
"A-3895","2,5-dimethylphenol",-1.5375827569,"Cc1ccc(C)c(O)c1","Cc1ccc(C)c(O)c1",13.556874254993511,"Cc1ccc(C)c(O)c1",2.0090399999999997,20.23,122.07316494,1,1,0,1,1,0,1,9,19,0,1,1,0,0,0,0,0,1,0,0,0.25
"A-3896","{[(2R,3S,4R,5R)-5-(6-amino-9H-purin-9-yl)-3,4-dihydroxyoxolan-2-yl]methoxy}phosphonic acid",-1.9953026194,"Nc1ncnc2c1ncn2C1OC(COP(=O)([O-])[O-])C(O)C1O","Nc1ncnc2c1ncn2C1OC(COP(=O)([O-])[O-])C(O)C1O",-58.99893861449073,"Nc1ncnc2c1ncn2C1OC(COP(=O)([O-])[O-])C(O)C1O",-3.1269999999999984,191.73,345.0485315138199,12,4,4,3,12,0,13,23,35,4,3,2,1,1,2,1,1,0,0,0,0.5
"A-3898","2,3,5-trimethylbenzene-1,4-diol",-1.6383266335,"Cc1cc(O)c(C)c(C)c1O","Cc1cc(O)c(C)c(C)c1O",16.91666334097051,"Cc1cc(O)c(C)c(C)c1O",2.0230600000000005,40.46,152.083729624,2,2,0,2,2,0,2,11,23,0,1,1,0,0,0,0,0,1,0,0,0.3333333333333333
"A-3900","[2-(4-aminobenzenesulfonyl)ethoxy]sulfonic acid",-1.9051186702,"Nc1ccc(S(=O)(=O)CCOS(=O)(=O)[O-])cc1","Nc1ccc(S(=O)(=O)CCOS(=O)(=O)[O-])cc1",-65.14222189594572,"Nc1ccc(S(=O)(=O)CCOS(=O)(=O)[O-])cc1",-0.48069999999999946,126.59,279.99550261991004,7,2,5,1,7,0,9,17,27,0,1,1,0,0,0,0,0,1,0,0,0.25
"A-3903","tris(prop-2-en-1-yl)-1,3,5-triazinane-2,4,6-trione",-1.8526019693,"C=CCn1c(=O)n(CC=C)c(=O)n(CC=C)c1=O","C=CCN1C(=O)N(CC=C)C(=O)N(CC=C)C1=O",-231.0822786439245,"C=CCn1c(=O)n(CC=C)c(=O)n(CC=C)c1=O",1.8240000000000003,60.93000000000001,249.11134134,6,0,6,0,3,6,6,18,33,0,1,0,1,1,0,1,1,0,0,0,0.25
"A-3904","methyl 3-aminopyrazine-2-carboxylate",-1.6422660517,"COC(=O)c1nccnc1N","COC(=O)c1nccnc1N",98.9243061868684,"COC(=O)c1nccnc1N",-0.15459999999999996,78.1,153.053826464,5,2,1,1,5,0,5,11,18,0,1,1,0,0,1,0,0,0,0,0,0.16666666666666666
"A-3905","1,3,5-triazine-2,4,6-triamine",-1.5592150485,"Nc1nc(N)nc(N)n1","Nc1nc(N)nc(N)n1",-118.7505570056777,"Nc1nc(N)nc(N)n1",-1.3818000000000001,116.72999999999999,126.06539419199999,6,6,0,3,6,0,6,9,15,0,1,1,0,0,1,0,0,0,0,0,0