"ID","Name","Solubility","SMILES Canonical","Smiles (Optimized Geometry)","Energy","Smiles","SlogP","TPSA","ExactMW","NumLipinskiHBA","NumLipinskiHBD","NumRotatableBonds","NumHBD","NumHBA","NumAmideBonds","NumHeteroAtoms","NumHeavyAtoms","NumAtoms","NumStereocenters","NumRings","NumAromaticRings","NumSaturatedRings","NumAliphaticRings","NumAromaticHeterocycles","NumSaturatedHeterocycles","NumAliphaticHeterocycles","NumAromaticCarbocycles","NumSaturatedCarbocycles","NumAliphaticCarbocycles","FractionCSP3"
"A-3212","oxolan-2-ylmethyl prop-2-enoate",-0.2954517157,"C=CC(=O)OCC1CCCO1","C=CC(=O)OCC1CCCO1",4.899759629122151,"C=CC(=O)OCC1CCCO1",0.8945999999999998,35.53,156.078644244,3,0,3,0,3,0,3,11,23,1,1,0,1,1,0,1,1,0,0,0,0.625
"A-3216","(5R)-5-[(1S)-1,2-dihydroxyethyl]-4-ethoxy-3-hydroxy-5H-furan-2-one",0.5809706516,"CCOC1=C(O)C(=O)O[C@@H]1[C@@H](O)CO","CCOC1=C(O)C(=O)O[C@@H]1[C@@H](O)CO",25.20272046160487,"CCOC1=C(O)C(=O)O[C@@H]1[C@@H](O)CO",-0.9289000000000003,96.22000000000001,204.063388104,6,3,4,3,6,0,6,14,26,2,1,0,0,1,0,0,1,0,0,0,0.625
"A-3218","1,4-dimethyl (2Z)-but-2-enedioate",-0.2672048759,"COC(=O)C=CC(=O)OC","COC(=O)C=CC(=O)OC",-29.130665880828527,"COC(=O)C=CC(=O)OC",-0.11140000000000017,52.60000000000001,144.042258736,4,0,2,0,4,0,4,10,18,0,0,0,0,0,0,0,0,0,0,0,0.3333333333333333
"A-3219","2-methylbenzene-1,4-diol",-0.2074175174,"Cc1cc(O)ccc1O","Cc1cc(O)ccc1O",14.069842416345715,"Cc1cc(O)ccc1O",1.4062199999999998,40.46,124.052429496,2,2,0,2,2,0,2,9,17,0,1,1,0,0,0,0,0,1,0,0,0.14285714285714285
"A-3233","methyl 3-methoxypropanoate",0.8026937067,"COCCC(=O)OC","COCCC(=O)OC",-18.025953027261956,"COCCC(=O)OC",0.19589999999999996,35.53,118.06299418,3,0,3,0,3,0,3,8,18,0,0,0,0,0,0,0,0,0,0,0,0.8
"A-3235","4-(vinyloxy)butan-1-ol",-0.18999534,"C=COCCCCO","C=COCCCCO",1.16007615112526,"C=COCCCCO",0.9189999999999998,29.46,116.083729624,2,1,5,1,2,0,2,8,20,0,0,0,0,0,0,0,0,0,0,0,0.6666666666666666
"A-3256","Dihydrodicyclopentadienyl acrylate",-3.7081424715,"C=CC(=O)OC1C=CC2C3CCC(C3)C12","C=CC(=O)OC1C=CC2C3CCC(C3)C12",19.645830131746862,"C=CC(=O)OC1C=CC2C3CCC(C3)C12",2.3163,26.3,204.115029752,2,0,2,0,2,0,2,15,31,5,3,0,2,3,0,0,0,0,2,3,0.6153846153846154
"A-3263","L-prolinamide",0.7853597575,"NC(=O)[C@@H]1CCC[NH2+]1","NC(=O)[C@@H]1CCC[NH2+]1",5.299285513502657,"NC(=O)[C@@H]1CCC[NH2+]1",-1.8024999999999984,59.7,115.08658939208999,3,4,1,2,1,1,3,8,19,1,1,0,1,1,0,1,1,0,0,0,0.8
"A-3270","benzene-1,4-diol",-0.1967366109,"Oc1ccc(O)cc1","Oc1ccc(O)cc1",13.491045843499348,"Oc1ccc(O)cc1",1.0977999999999999,40.46,110.036779432,2,2,0,2,2,0,2,8,14,0,1,1,0,0,0,0,0,1,0,0,0
"A-3273","acid D,L-aspart",-1.2293181874,"[NH3+]C(CC(=O)[O-])C(=O)[O-]","[NH3+]C(CC(=O)[O-])C(=O)[O-]",-134.2368065580701,"[NH3+]C(CC(=O)[O-])C(=O)[O-]",-4.5131999999999985,107.9,132.03023125191,5,3,3,1,4,0,5,9,15,1,0,0,0,0,0,0,0,0,0,0,0.5
"A-3276","2-[(4-aminophenyl)amino]-5-nitrobenzene-1-sulfonic acid",-1.5982895297,"Nc1ccc(Nc2ccc([N+](=O)[O-])cc2S(=O)(=O)[O-])cc1","Nc1ccc(Nc2ccc([N+](=O)[O-])cc2S(=O)(=O)[O-])cc1",37.463929187894124,"Nc1ccc(Nc2ccc([N+](=O)[O-])cc2S(=O)(=O)[O-])cc1",1.8247,138.39,308.03466499991,8,3,4,2,7,0,9,21,31,0,2,2,0,0,0,0,0,2,0,0,0
"A-3281","octane-1,2-diol",-1.2899752166,"CCCCCCC(O)CO","CCCCCCC(O)CO",11.372875917697968,"CCCCCCC(O)CO",1.3099999999999998,40.46,146.130679816,2,2,6,2,2,0,2,10,28,1,0,0,0,0,0,0,0,0,0,0,1
"A-3284","ethylbis(propan-2-yl)amine",-1.2416022633,"CC[NH+](C(C)C)C(C)C","CC[NH+](C(C)C)C(C)C",6.763389061189554,"CC[NH+](C(C)C)C(C)C",0.708,4.44,130.15902606008999,1,1,3,1,0,0,1,9,29,0,0,0,0,0,0,0,0,0,0,0,1
"A-3290","propan-2-yl 2,2,2-trifluoroacetate",-1.336078753,"CC(C)OC(=O)C(F)(F)F","CC(C)OC(=O)C(F)(F)F",70.5462053346024,"CC(C)OC(=O)C(F)(F)F",1.5003000000000002,26.3,156.039814124,2,0,1,0,2,0,5,10,17,0,0,0,0,0,0,0,0,0,0,0,0.8
"A-3293","(2E)-but-2-enedioic acid",-1.2196294277,"O=C([O-])C=CC(=O)[O-]","O=C([O-])C=CC(=O)[O-]",78.68379229397993,"O=C([O-])C=CC(=O)[O-]",-2.9576000000000002,80.25999999999999,113.99640570382002,4,0,2,0,4,0,4,8,10,0,0,0,0,0,0,0,0,0,0,0,0
"A-3294","1-[(2-hydroxypropyl)(4-methylphenyl)amino]propan-2-ol",-1.5038218002,"Cc1ccc(N(CC(C)O)CC(C)O)cc1","Cc1ccc(N(CC(C)O)CC(C)O)cc1",60.793389316242425,"Cc1ccc(N(CC(C)O)CC(C)O)cc1",1.5630199999999999,43.7,223.157228912,3,2,5,2,3,0,3,16,37,2,1,1,0,0,0,0,0,1,0,0,0.5384615384615384
"A-3296","diethyl sulfate",-1.3429497185,"CCOS(=O)(=O)OCC","CCOS(=O)(=O)OCC",-68.02940223045847,"CCOS(=O)(=O)OCC",0.30420000000000014,52.60000000000001,154.0299798,4,0,4,0,4,0,5,9,19,0,0,0,0,0,0,0,0,0,0,0,1
"A-3306","3-(dodecyldimethylazaniumyl)-2-hydroxypropane-1-sulfonate",0.2865181043,"CCCCCCCCCCCC[N+](C)(C)CC(O)CS(=O)(=O)[O-]","CCCCCCCCCCCC[N+](C)(C)CC(O)CS(=O)(=O)[O-]",-89.6013564856583,"CCCCCCCCCCCC[N+](C)(C)CC(O)CS(=O)(=O)[O-]",2.889800000000001,77.42999999999999,351.2443296639999,5,1,15,1,4,0,6,23,60,1,0,0,0,0,0,0,0,0,0,0,1
"A-3313","2-methyl-5-nitrobenzene-1-sulfonic acid",0.4924399529,"Cc1ccc([N+](=O)[O-])cc1S(=O)(=O)[O-]","Cc1ccc([N+](=O)[O-])cc1S(=O)(=O)[O-]",26.580396814572822,"Cc1ccc([N+](=O)[O-])cc1S(=O)(=O)[O-]",0.8073199999999999,100.34,215.99721687191,6,0,2,0,5,0,7,14,20,0,1,1,0,0,0,0,0,1,0,0,0.14285714285714285
"A-3346","hexane-1,6-diamine",0.7389034055,"[NH3+]CCCCCC[NH3+]","[NH3+]CCCCCC[NH3+]",44.7762095935966,"[NH3+]CCCCCC[NH3+]",-0.9693999999999985,55.28,118.14590141617998,2,6,5,2,0,0,2,8,26,0,0,0,0,0,0,0,0,0,0,0,1
"A-3353","1,1-dimethylpropyl hydroperoxide",-0.2165945745,"CCC(C)(C)OO","CCC(C)(C)OO",7.968245258409044,"CCC(C)(C)OO",1.6646,29.46,104.083729624,2,1,2,1,2,0,2,7,19,0,0,0,0,0,0,0,0,0,0,0,1
"A-3354","2-phenylethan-1-amine",-0.2823811698,"[NH3+]CCc1ccccc1","[NH3+]CCc1ccccc1",9.510538112416215,"[NH3+]CCc1ccccc1",0.47099999999999964,27.64,122.09642580408999,1,3,2,1,0,0,1,9,21,0,1,1,0,0,0,0,0,1,0,0,0.25
"A-3357","4-hydroxy-2,2,6,6-tetramethylpiperidinoxyl",0.5627035438,"CC1(C)CC(O)CC(C)(C)N1[O]","CC1(C)CC(O)CC(C)(C)N1[O]",9.733934272314503,"CC1(C)CC(O)CC(C)(C)N1[O]",1.3457999999999999,43.37,172.133753816,3,1,0,1,2,0,3,12,30,0,1,0,1,1,0,1,1,0,0,0,1
"A-3360","oxolane-2,5-dione",-0.2016662739,"O=C1CCC(=O)O1","O=C1CCC(=O)O1",-33.465328250499084,"O=C1CCC(=O)O1",-0.15000000000000002,43.370000000000005,100.016043988,3,0,0,0,3,0,3,7,11,0,1,0,1,1,0,1,1,0,0,0,0.5
"A-3365","2,2-bis(hydroxymethyl)propane-1,3-diol",-0.3416163866,"OCC(CO)(CO)CO","OCC(CO)(CO)CO",-17.91177553609288,"OCC(CO)(CO)CO",-2.058,80.92,136.073558864,4,4,4,4,4,0,4,9,21,0,0,0,0,0,0,0,0,0,0,0,1
"A-3367","2-methylpropanoic anhydride",0.5917902317,"CC(C)C(=O)OC(=O)C(C)C","CC(C)C(=O)OC(=O)C(C)C",-14.561732608934337,"CC(C)C(=O)OC(=O)C(C)C",1.3681999999999999,43.370000000000005,158.094294308,3,0,2,0,3,0,3,11,25,0,0,0,0,0,0,0,0,0,0,0,0.75
"A-3372","2,2,4,4-tetramethylcyclobutane-1,3-diol",-0.3736775878,"CC1(C)C(O)C(C)(C)C1O","CC1(C)C(O)C(C)(C)C1O",2.4158165223932597,"CC1(C)C(O)C(C)(C)C1O",0.7742,40.46,144.115029752,2,2,0,2,2,0,2,10,26,0,1,0,1,1,0,0,0,0,1,1,1
"A-3374","1,4-bis({3-[2-(2-hydroxyethoxy)ethoxy]propyl}amino)-9,10-dihydroanthracene-9,10-dione",0.0571886956,"O=C1c2ccccc2C(=O)c2c(NCCCOCCOCCO)ccc(NCCCOCCOCCO)c21","O=C1c2ccccc2C(=O)c2c(NCCCOCCOCCO)ccc(NCCCOCCOCCO)c21",97.5950333341576,"O=C1c2ccccc2C(=O)c2c(NCCCOCCOCCO)ccc(NCCCOCCOCCO)c12",2.1170000000000004,135.58,530.2628161759999,10,4,20,4,10,0,10,38,76,0,3,2,0,1,0,0,0,2,0,1,0.5
"A-3376","2-oxopentanedioic acid",0.6148800726,"O=C([O-])CCC(=O)C(=O)[O-]","O=C([O-])CCC(=O)C(=O)[O-]",124.8445534535719,"O=C([O-])CCC(=O)C(=O)[O-]",-3.1644999999999994,97.33,144.00697038782002,5,0,4,0,5,0,5,10,14,0,0,0,0,0,0,0,0,0,0,0,0.4
"A-3381","O,O-diisopropyl hydrogen dithiophosphate",-0.5528547078,"CC(C)OP(=S)(S)OC(C)C","CC(C)OP(=S)(S)OC(C)C",-57.83068127139794,"CC(C)OP(=S)(S)OC(C)C",2.9907000000000012,18.46,214.02510834999998,2,0,4,1,3,0,5,11,26,0,0,0,0,0,0,0,0,0,0,0,1
"A-3385","N,2,3-trimethyl-2-(propan-2-yl)butanamide",-1.3948677058,"CNC(=O)C(C)(C(C)C)C(C)C","CNC(=O)C(C)(C(C)C)C(C)C",8.58959495260748,"CNC(=O)C(C)(C(C)C)C(C)C",2.0507,29.1,171.162314292,2,1,3,1,1,1,2,12,33,0,0,0,0,0,0,0,0,0,0,0,0.9
"A-3389","2-[1-(carboxymethyl)cyclohexyl]acetic acid",-1.4722340504,"O=C([O-])CC1(CC(=O)[O-])CCCCC1","O=C([O-])CC1(CC(=O)[O-])CCCCC1",73.36376712494659,"O=C([O-])CC1(CC(=O)[O-])CCCCC1",-0.7830999999999997,80.25999999999999,198.09030608782,4,0,4,0,4,0,4,14,28,0,1,0,1,1,0,0,0,0,1,1,0.8
"A-3391","(2S)-5-amino-2-[(2-aminoacetyl)amino]-5-oxopentanoic acid",-0.194310278,"NC(=O)CC[C@H](NC(=O)C[NH3+])C(=O)[O-]","NC(=O)CC[C@H](NC(=O)C[NH3+])C(=O)[O-]",-75.325059192627,"NC(=O)CC[C@H](NC(=O)C[NH3+])C(=O)[O-]",-4.271499999999999,139.96,203.090605896,7,6,6,3,4,2,7,14,27,1,0,0,0,0,0,0,0,0,0,0,0.5714285714285714
"A-3397","benzaldehyde",-1.2095723109,"O=Cc1ccccc1","O=Cc1ccccc1",15.409188528519296,"O=Cc1ccccc1",1.4990999999999999,17.07,106.041864812,1,0,1,0,1,0,1,8,14,0,1,1,0,0,0,0,0,1,0,0,0
"A-3398","2-hydroperoxy-2-(2-hydroperoxybutan-2-ylperoxy)butane",-1.5077732457,"CCC(C)(OO)OOC(C)(CC)OO","CCC(C)(OO)OOC(C)(CC)OO",35.50268658387919,"CCC(C)(OO)OOC(C)(CC)OO",2.1662,77.38000000000001,210.110338296,6,2,7,2,6,0,6,14,32,2,0,0,0,0,0,0,0,0,0,0,1
"A-3399","2-(methylamino)-1-phenylpropan-1-ol",-1.4051913165,"C[NH2+][C@@H](C)[C@@H](O)c1ccccc1","C[NH2+][C@@H](C)[C@@H](O)c1ccccc1",17.927752507162545,"C[NH2+][C@@H](C)[C@@H](O)c1ccccc1",0.30170000000000013,36.84,166.12264055209,2,3,3,2,1,0,2,12,28,2,1,1,0,0,0,0,0,1,0,0,0.4
"A-3401","ethyl 2-methylpropanoate",-1.2554968887,"CCOC(=O)C(C)C","CCOC(=O)C(C)C",-9.31050805812937,"CCOC(=O)C(C)C",1.2055,26.3,116.083729624,2,0,2,0,2,0,2,8,20,0,0,0,0,0,0,0,0,0,0,0,0.8333333333333334
"A-3403","1,3-dihydro-2-benzofuran-1,3-dione",-1.3644249332,"O=C1OC(=O)c2ccccc21","O=C1OC(=O)c2ccccc21",-9.256432931901426,"O=C1OC(=O)c2ccccc12",0.9972,43.370000000000005,148.01604398799998,3,0,0,0,3,0,3,11,15,0,2,1,0,1,0,0,1,1,0,0,0
"A-3407","quinoline",-1.325093551,"c1ccc2ncccc2c1","c1ccc2ncccc2c1",26.929853249595123,"c1ccc2ncccc2c1",2.2348,12.89,129.057849224,1,0,0,0,1,0,1,10,17,0,2,2,0,0,1,0,0,1,0,0,0
"A-3411","1-ethylpiperidine",-1.2757105223,"CC[NH+]1CCCCC1","CC[NH+]1CCCCC1",5.610177404437248,"CC[NH+]1CCCCC1",0.07509999999999972,4.44,114.12772593208999,1,1,1,1,0,0,1,8,24,0,1,0,1,1,0,1,1,0,0,0,1
"A-3412","2-amino-5-methylbenzene-1-sulfonic acid",-1.4942009905,"Cc1ccc(N)c(S(=O)(=O)[O-])c1","Cc1ccc(N)c(S(=O)(=O)[O-])c1",16.47853962874726,"Cc1ccc(N)c(S(=O)(=O)[O-])c1",0.4813200000000001,83.22,186.02303769591,4,2,1,1,4,0,5,12,20,0,1,1,0,0,0,0,0,1,0,0,0.14285714285714285
"A-3432","1,3-bis(acetyloxy)propan-2-yl acetate",-0.5754367043,"CC(=O)OCC(COC(C)=O)OC(C)=O","CC(=O)OCC(COC(C)=O)OC(C)=O",-25.24658660649691,"CC(=O)OCC(COC(=O)C)OC(=O)C",0.044299999999999784,78.9,218.079038168,6,0,5,0,6,0,6,15,29,0,0,0,0,0,0,0,0,0,0,0,0.6666666666666666
"A-3434","hexyl D-glucoside",-0.6586987459,"CCCCCCOC1O[C@H](CO)[C@@H](O)[C@H](O)[C@H]1O","CCCCCCOC1O[C@H](CO)[C@@H](O)[C@H](O)[C@H]1O",31.15773798555455,"CCCCCCOC1O[C@H](CO)[C@@H](O)[C@H](O)[C@H]1O",-0.6168000000000002,99.38000000000001,264.157288488,6,4,7,4,6,0,6,18,42,5,1,0,1,1,0,1,1,0,0,0,1
"A-3435","2-hydroxypropane-1,2,3-tricarboxylic acid",0.4768431239,"O=C([O-])CC(O)(CC(=O)[O-])C(=O)[O-]","O=C([O-])CC(O)(CC(=O)[O-])C(=O)[O-]",205.9604829524339,"O=C([O-])CC(O)(CC(=O)[O-])C(=O)[O-]",-5.252599999999999,140.62,189.00517323973003,7,1,5,1,7,0,7,13,18,0,0,0,0,0,0,0,0,0,0,0,0.5
"A-3438","tris(2-hydroxyethyl)-1,3,5-triazinane-2,4,6-trione",0.3403663284,"O=c1n(CCO)c(=O)n(CCO)c(=O)n1CCO","O=C1N(CCO)C(=O)N(CCO)C(=O)N1CCO",-194.33517519474884,"O=c1n(CCO)c(=O)n(CCO)c(=O)n1CCO",-1.7570999999999992,121.62,261.0960852,9,3,6,3,6,6,9,18,33,0,1,0,1,1,0,1,1,0,0,0,0.6666666666666666
"A-3444","xylose",0.5778808511,"OC1COC(O)C(O)C1O","OC1COC(O)C(O)C1O",33.60244944937136,"OC1COC(O)C(O)C1O",-2.5823000000000005,90.15,150.05282342,5,4,0,4,5,0,5,10,20,4,1,0,1,1,0,1,1,0,0,0,1
"A-3445","2,4-dihydroxy-N-(3-hydroxypropyl)-3,3-dimethylbutanamide",0.4376764541,"CC(C)(CO)C(O)C(=O)NCCCO","CC(C)(CO)C(O)C(=O)NCCCO",7.874742342325034,"CC(C)(CO)C(O)C(=O)NCCCO",-1.1355999999999997,89.79,205.131408088,5,4,6,4,4,1,5,14,33,1,0,0,0,0,0,0,0,0,0,0,0.8888888888888888
"A-3446","(2R,3R)-2,3-dihydroxybutanedioic acid",0.5718478438,"O=C([O-])C(O)C(O)C(=O)[O-]","O=C([O-])C(O)C(O)C(=O)[O-]",123.01489803456312,"O=C([O-])C(O)C(O)C(=O)[O-]",-4.791999999999999,120.72,148.00188500782,6,2,3,2,6,0,6,10,14,2,0,0,0,0,0,0,0,0,0,0,0.5
"A-3447","[(bis{6-[bis(phosphonomethyl)amino]hexyl}amino)methyl]phosphonic acid",-0.0877655775,"O=P([O-])([O-])C[NH+](CCCCCC[NH+](CP(=O)([O-])[O-])CP(=O)([O-])[O-])CCCCCC[NH+](CP(=O)([O-])[O-])CP(=O)([O-])[O-]","O=P([O-])([O-])C[NH+](CCCCCC[NH+](CP(=O)([O-])[O-])CP(=O)([O-])[O-])CCCCCC[NH+](CP(=O)([O-])[O-])CP(=O)([O-])[O-]",360.2131638705094,"O=P([O-])([O-])C[NH+](CCCCCC[NH+](CP(=O)([O-])[O-])CP(=O)([O-])[O-])CCCCCC[NH+](CP(=O)([O-])[O-])CP(=O)([O-])[O-]",-9.882100000000024,329.27,678.09511569337,18,3,24,3,15,0,23,40,77,0,0,0,0,0,0,0,0,0,0,0,1
"A-3452","dimethyl 2-acetylsuccinate",-0.5248348408,"COC(=O)CC(C(C)=O)C(=O)OC","COC(=O)CC(C(C)=O)C(=O)OC",-61.394556459850364,"COC(=O)CC(C(=O)C)C(=O)OC",-0.07230000000000025,69.67,188.068473484,5,0,4,0,5,0,5,13,25,1,0,0,0,0,0,0,0,0,0,0,0.625
"A-3459","2-{[4-(oxiran-2-ylmethoxy)butoxy]methyl}oxirane",-0.5608137387,"C(CCOCC1CO1)COCC1CO1","C(CCOCC1CO1)COCC1CO1",5.422698587801294,"C(CCOCC1CO1)COCC1CO1",0.5973999999999999,43.519999999999996,202.120509056,4,0,9,0,4,0,4,14,32,2,2,0,2,2,0,2,2,0,0,0,1
"A-3464","2-(sec-butylamino)ethanol",0.6667009337,"CCC(C)[NH2+]CCO","CCC(C)[NH2+]CCO",-1.3154846879300317,"CCC(C)[NH2+]CCO",-0.6593999999999998,36.84,118.12264055208999,2,3,4,2,1,0,2,8,24,1,0,0,0,0,0,0,0,0,0,0,1
"A-3469","(E)-1-methyl-3-nitro-2-(oxolan-3-ylmethyl)guanidine",-0.5694147178,"CN=C(NCC1CCOC1)N[N+](=O)[O-]","CN=C(NCC1CCOC1)N[N+](=O)[O-]",-38.94258722651918,"CN=C(NCC1CCOC1)N[N+](=O)[O-]",-0.6203999999999994,88.79,202.106590308,7,2,3,2,4,0,7,14,28,1,1,0,1,1,0,1,1,0,0,0,0.8571428571428571
"A-3472","ethyl 3-ethoxypropanoate",-0.4317085178,"CCOCCC(=O)OCC","CCOCCC(=O)OCC",-18.256212783654675,"CCOCCC(=O)OCC",0.9761000000000001,35.53,146.094294308,3,0,5,0,3,0,3,10,24,0,0,0,0,0,0,0,0,0,0,0,0.8571428571428571
"A-3473","N-methylcyclohexanamine",-0.3214680129,"C[NH2+]C1CCCCC1","C[NH2+]C1CCCCC1",9.816022973263184,"C[NH2+]C1CCCCC1",0.5122999999999998,16.61,114.12772593208999,1,2,1,1,0,0,1,8,24,0,1,0,1,1,0,0,0,0,1,1,1
"A-3481","ethyl 2-cyanoacetate",-0.3276124069,"CCOC(=O)CC#N","CCOC(=O)CC#N",-17.294992372929023,"CCOC(=O)CC#N",0.46318,50.09,113.047678464,3,0,2,0,3,0,3,8,15,0,0,0,0,0,0,0,0,0,0,0,0.6
"A-3487","2-methylpentanedinitrile",-0.3155007402,"CC(C#N)CCC#N","CC(C#N)CCC#N",-2.84166047976559,"CC(C#N)CCC#N",1.44986,47.58,108.06874825599999,2,0,2,0,2,0,2,8,16,1,0,0,0,0,0,0,0,0,0,0,0.6666666666666666
"A-3488","1-butoxypropan-2-ol",-0.4052379668,"CCCCOCC(C)O","CCCCOCC(C)O",14.054071387725887,"CCCCOCC(C)O",1.1839,29.46,132.115029752,2,1,5,1,2,0,2,9,25,1,0,0,0,0,0,0,0,0,0,0,1
"A-3496","4-methyl-1,3-oxazole-5-carbonitrile",-0.324555733,"Cc1ncoc1C#N","Cc1ncoc1C#N",12.9991367693112,"Cc1ncoc1C#N",0.8547,49.82,108.032362748,3,0,0,0,3,0,3,8,12,0,1,1,0,0,1,0,0,0,0,0,0.2
"A-3501","(3S,4aS,8aR)-N-tert-butyl-3,4,4a,5,6,7,8,8a-octahydro-1H-isoquinolin-2-ium-3-carboxamide",-2.1616093611,"CC(C)(C)NC(=O)[C@@H]1C[C@@H]2CCCC[C@H]2C[NH2+]1","CC(C)(C)NC(=O)[C@@H]1C[C@@H]2CCCC[C@H]2C[NH2+]1",14.202705467013251,"CC(C)(C)NC(=O)[C@@H]1C[C@@H]2CCCC[C@H]2C[NH2+]1",1.0432000000000006,45.71,239.21178990408998,3,3,1,2,1,1,3,17,44,3,2,0,2,2,0,1,1,0,1,1,0.9285714285714286
"A-3502","hexane-1,6-diol",1.6264407184,"OCCCCCCO","OCCCCCCO",1.3883733699078666,"OCCCCCCO",0.5313999999999999,40.46,118.099379688,2,2,5,2,2,0,2,8,22,0,0,0,0,0,0,0,0,0,0,0,1
"A-3503","2-(dimethylamino)ethyl 2-methylprop-2-enoate",0.5024815492,"C=C(C)C(=O)OCC[NH+](C)C","C=C(C)C(=O)OCC[NH+](C)C",-13.448781694506732,"C=C(C)C(=O)OCC[NH+](C)C",-0.7497999999999989,30.740000000000002,158.11755517209,3,1,4,1,2,0,3,11,27,0,0,0,0,0,0,0,0,0,0,0,0.625
"A-3505","triethyl phosphate",0.4385265234,"CCOP(=O)(OCC)OCC","CCOP(=O)(OCC)OCC",-83.4950276842139,"CCOP(=O)(OCC)OCC",2.2039999999999997,44.760000000000005,182.07079559,4,0,6,0,4,0,5,11,26,0,0,0,0,0,0,0,0,0,0,0,1
"A-3506","5-oxo-DL-proline",-0.4042589172,"O=C1CCC(C(=O)[O-])N1","O=C1CCC(C(=O)[O-])N1",29.789498610814604,"O=C1CCC(C(=O)[O-])N1",-1.9850999999999992,69.23,128.03531663191,4,1,1,1,3,1,4,9,15,1,1,0,1,1,0,1,1,0,0,0,0.6
"A-3514","phenyl acetate",-1.3735951623,"CC(=O)Oc1ccccc1","CC(=O)Oc1ccccc1",22.69710468986776,"CC(=O)Oc1ccccc1",1.6118999999999999,26.3,136.052429496,2,0,1,0,2,0,2,10,18,0,1,1,0,0,0,0,0,1,0,0,0.125
"A-3518","2,4-dimethylaniline",-1.3352536727,"Cc1ccc(N)c(C)c1","Cc1ccc(N)c(C)c1",11.579994967966522,"Cc1ccc(N)c(C)c1",1.88564,26.02,121.08914935199999,1,2,0,1,1,0,1,9,20,0,1,1,0,0,0,0,0,1,0,0,0.25
"A-3521","phenyl diamidophosphate",-1.4876534031,"NP(N)(=O)Oc1ccccc1","NP(N)(=O)Oc1ccccc1",12.795391771477128,"NP(=O)(N)Oc1ccccc1",1.0909000000000002,78.34,172.040164158,4,4,2,2,2,0,5,11,20,0,1,1,0,0,0,0,0,1,0,0,0
"A-3525","2-methylpentane-1,5-diamine",-1.3272487005,"CC(C[NH3+])CCC[NH3+]","CC(C[NH3+])CCC[NH3+]",60.33853986917316,"CC(C[NH3+])CCC[NH3+]",-1.113499999999998,55.28,118.14590141617998,2,6,4,2,0,0,2,8,26,1,0,0,0,0,0,0,0,0,0,0,1
"A-3526","6-amino-1,3-dimethyl-1,2,3,4-tetrahydropyrimidine-2,4-dione",-1.4535787311,"Cn1c(N)cc(=O)n(C)c1=O","CN1C(=O)C=C(N)N(C)C1=O",-87.40059604289581,"Cn1c(=O)cc(N)n(C)c1=O",-0.6896999999999998,66.64,155.069476528,5,2,0,1,3,3,5,11,20,0,1,0,0,1,0,0,1,0,0,0,0.3333333333333333
"A-3527","6-pent-3-en-1-yltetrahydro-2H-pyran-2-one",-1.4887262913,"CC=CCCC1CCCC(=O)O1","CC=CCCC1CCCC(=O)O1",0.7887709161697902,"CC=CCCC1CCCC(=O)O1",2.4384000000000006,26.3,168.115029752,2,0,3,0,2,0,2,12,28,1,1,0,1,1,0,1,1,0,0,0,0.7
"A-3530","2-hydroxy-3-phenoxypropyl prop-2-enoate",-1.6225463588,"CCCOC(=O)C(O)=COc1ccccc1","CCCOC(=O)C(O)=COc1ccccc1",16.775557606726576,"CCCOC(=O)C(=COc1ccccc1)O",2.418,55.760000000000005,222.089208928,4,1,5,1,4,0,4,16,30,0,1,1,0,0,0,0,0,1,0,0,0.25
"A-3532","2,6-diamino-1,4-dihydropyrimidin-4-one",-1.378146596,"Nc1cc(=O)nc(N)[nH]1","NC1=CC(=O)N=C(N)N1",-27.002954731429497,"Nc1cc(=O)nc(N)[nH]1",-1.7690000000000001,93.5,126.05416081199999,5,5,0,3,4,1,5,9,15,0,1,0,0,1,0,0,1,0,0,0,0
"A-3536","oxydipropane-1,2-diyl bisacrylate",-1.6682980883,"C=CC(=O)OC(C)COCC(C)OC(=O)C=C","C=CC(=O)OC(C)COCC(C)OC(=O)C=C",9.52036268024816,"C=CC(=O)OC(C)COCC(C)OC(=O)C=C",1.2384,61.830000000000005,242.115423676,5,0,8,0,5,0,5,17,35,2,0,0,0,0,0,0,0,0,0,0,0.5
"A-3537","pyridine-4-carboxylic acid",-1.3759670992,"O=C([O-])c1ccncc1","O=C([O-])c1ccncc1",11.892436417383305,"O=C([O-])c1ccncc1",-0.5549000000000004,53.019999999999996,122.02475194791,3,0,1,0,3,0,3,9,13,0,1,1,0,0,1,0,0,0,0,0,0
"A-3538","1,4-dithiane-2,5-diol",-1.4690382322,"OC1CSC(O)CS1","OC1CSC(O)CS1",34.69381102986466,"OC1CSC(O)CS1",0.10319999999999996,40.46,151.996571496,2,2,0,2,4,0,4,8,16,2,1,0,1,1,0,1,1,0,0,0,1
"A-3540","4-(3-methyl-5-oxo-4,5-dihydro-1H-pyrazol-1-yl)benzenesulfonic acid",-1.6926402974,"CC1=NN(c2ccc(S(=O)(=O)[O-])cc2)C(=O)C1","CC1=NN(c2ccc(S(=O)(=O)[O-])cc2)C(=O)C1",37.39452797381932,"CC1=NN(c2ccc(S(=O)(=O)[O-])cc2)C(=O)C1",0.7033000000000001,89.87,253.02885134791,6,0,2,0,5,1,7,17,26,0,2,1,0,1,0,0,1,1,0,0,0.2
"A-3542","toluenesulphonamide",-1.5259868531,"Cc1ccccc1S(N)(=O)=O","Cc1ccccc1S(N)(=O)=O",24.698315390170105,"Cc1ccccc1S(=O)(=O)N",0.6424200000000001,60.160000000000004,171.035399528,3,2,1,1,2,0,4,11,20,0,1,1,0,0,0,0,0,1,0,0,0.14285714285714285
"A-3543","1-(6-methyl-2-oxohexahydropyrimidin-4-yl)urea",-1.5314234319,"CC1CC(NC(N)=O)NC(=O)N1","CC1CC(NC(N)=O)NC(=O)N1",-83.8118744214836,"CC1CC(NC(=O)N)NC(=O)N1",-0.9277999999999988,96.25,172.096025624,6,5,1,4,2,4,6,12,24,2,1,0,1,1,0,1,1,0,0,0,0.6666666666666666
"A-3547","3-(trifluoromethyl)aniline",-1.5081956214,"Nc1cccc(C(F)(F)F)c1","Nc1cccc(C(F)(F)F)c1",14.266827062726874,"Nc1cccc(C(F)(F)F)c1",2.2876000000000003,26.02,161.045233852,1,2,0,1,1,0,4,11,17,0,1,1,0,0,0,0,0,1,0,0,0.14285714285714285