"ID","Name","Solubility","SMILES Canonical","Smiles (Optimized Geometry)","Energy","Smiles","SlogP","TPSA","ExactMW","NumLipinskiHBA","NumLipinskiHBD","NumRotatableBonds","NumHBD","NumHBA","NumAmideBonds","NumHeteroAtoms","NumHeavyAtoms","NumAtoms","NumStereocenters","NumRings","NumAromaticRings","NumSaturatedRings","NumAliphaticRings","NumAromaticHeterocycles","NumSaturatedHeterocycles","NumAliphaticHeterocycles","NumAromaticCarbocycles","NumSaturatedCarbocycles","NumAliphaticCarbocycles","FractionCSP3"
"A-1792","4-tert-butylbenzaldehyde",-3.1309552762,"CC(C)(C)c1ccc(C=O)cc1","CC(C)(C)c1ccc(C=O)cc1",21.628577485957464,"CC(C)(C)c1ccc(C=O)cc1",2.7966000000000015,17.07,162.104465068,1,0,1,0,1,0,1,12,26,0,1,1,0,0,0,0,0,1,0,0,0.36363636363636365
"A-1793","6-aminonaphthalene-2-sulfonic acid",-3.2696160575,"Nc1ccc2cc(S(=O)(=O)[O-])ccc2c1","Nc1ccc2cc(S(=O)(=O)[O-])ccc2c1",27.077235687865485,"Nc1ccc2cc(S(=O)(=O)[O-])ccc2c1",1.3261,83.22,222.02303769591,4,2,1,1,4,0,5,15,23,0,2,2,0,0,0,0,0,2,0,0,0
"A-1795","2-ethylhexyl nitrate",-4.1466934911,"CCCCC(CC)CO[N+](=O)[O-]","CCCCC(CC)CO[N+](=O)[O-]",-12.816454476567037,"CCCCC(CC)CO[N+](=O)[O-]",2.4111000000000002,52.370000000000005,175.120843404,4,0,7,0,3,0,4,12,29,1,0,0,0,0,0,0,0,0,0,0,1
"A-1796","3-ethoxy-1,1,5-trimethylcyclohexane",-4.1342944341,"CCOC1CC(C)CC(C)(C)C1","CCOC1CC(C)CC(C)(C)C1",13.95143839468114,"CCOC1CC(C)CC(C)(C)C1",3.237700000000002,9.23,170.167065324,1,0,2,0,1,0,1,12,34,2,1,0,1,1,0,0,0,0,1,1,1
"A-1797","isooctyl acrylate",-4.1706554665,"C=CC(=O)OCCCCCC(C)C","C=CC(=O)OCCCCCC(C)C",-8.852935526108364,"C=CC(=O)OCCCCCC(C)C",2.9320000000000013,26.3,184.14632988,2,0,7,0,2,0,2,13,33,0,0,0,0,0,0,0,0,0,0,0,0.7272727272727273
"A-1798","2-(cyclohexylsulfanyl)-2,3-dihydro-1H-isoindole-1,3-dione",-4.3237941723,"O=C1c2ccccc2C(=O)N1SC1CCCCC1","O=C1c2ccccc2C(=O)N1SC1CCCCC1",27.983533493124455,"O=C1c2ccccc2C(=O)N1SC1CCCCC1",3.2635000000000023,37.38,261.08234972,3,0,2,0,3,2,4,18,33,0,3,1,1,2,0,0,1,1,1,1,0.42857142857142855
"A-1799","N-cyclohexyl-3-[(4-{[3-(cyclohexylsulfamoyl)-2,4,6-trimethylphenyl]amino}-9,10-dioxo-9,10-dihydroanthracen-1-yl)amino]-2,4,6-trimethylbenzene-1-sulfonamide",-4.8187034651,"Cc1cc(C)c(S(=O)(=O)NC2CCCCC2)c(C)c1Nc1ccc(Nc2c(C)cc(C)c(S(=O)(=O)NC3CCCCC3)c2C)c2c1C(=O)c1ccccc1C2=O","Cc1cc(C)c(S(=O)(=O)NC2CCCCC2)c(C)c1Nc1ccc(Nc2c(C)cc(C)c(S(=O)(=O)NC3CCCCC3)c2C)c2c1C(=O)c1ccccc1C2=O",68.31631197804899,"Cc1cc(C)c(S(=O)(=O)NC2CCCCC2)c(C)c1Nc1ccc(Nc2c(C)cc(C)c(S(=O)(=O)NC3CCCCC3)c2C)c2c1C(=O)c1ccccc1C2=O",9.021720000000002,150.54,796.3328273840001,10,4,10,4,8,0,12,56,108,0,7,4,2,3,0,0,0,4,2,3,0.4090909090909091
"A-1800","(4-tert-butyl-3-hydroxy-2,6-dimethylphenyl)acetonitrile",-4.2579024627,"Cc1cc(C(C)(C)C)c(O)c(C)c1CC#N","Cc1cc(C(C)(C)C)c(O)c(C)c1CC#N",35.99688801531762,"Cc1cc(C(C)(C)C)c(O)c(C)c1CC#N",3.372620000000002,44.019999999999996,217.146664228,2,1,1,1,2,0,2,16,35,0,1,1,0,0,0,0,0,1,0,0,0.5
"A-1802","diethyl (3,5-di-tert-butyl-4-hydroxybenzyl)phosphonate",-4.4728088442,"CCOP(=O)(Cc1cc(C(C)(C)C)c(O)c(C(C)(C)C)c1)OCC","CCOP(=O)(Cc1cc(C(C)(C)C)c(O)c(C(C)(C)C)c1)OCC",0.5667248515196319,"CCOP(=O)(Cc1cc(C(C)(C)C)c(O)c(C(C)(C)C)c1)OCC",5.7533000000000065,55.760000000000005,356.211646166,4,1,6,1,4,0,5,24,57,0,1,1,0,0,0,0,0,1,0,0,0.6842105263157895
"A-1806","3,7-dimethyloct-6-enenitrile",-3.104157036,"CC(C)=CCCC(C)CC#N","CC(C)=CCCC(C)CC#N",3.6537968710692414,"CC(=CCCC(C)CC#N)C",3.282580000000002,23.79,151.136099544,1,0,4,0,1,0,1,11,28,1,0,0,0,0,0,0,0,0,0,0,0.7
"A-1807","2-nitrophenyl acetate",-2.1855239105,"CC(=O)Oc1ccccc1[N+](=O)[O-]","CC(=O)Oc1ccccc1[N+](=O)[O-]",31.93473003999752,"CC(=O)Oc1ccccc1[N+](=O)[O-]",1.5200999999999998,69.44,181.037507704,5,0,2,0,4,0,5,13,20,0,1,1,0,0,0,0,0,1,0,0,0.125
"A-1808","N-(4-amino-2,5-diethoxyphenyl)benzamide",-2.4057571965,"CCOc1cc(NC(=O)c2ccccc2)c(OCC)cc1N","CCOc1cc(NC(=O)c2ccccc2)c(OCC)cc1N",52.1690854892163,"CCOc1cc(NC(=O)c2ccccc2)c(OCC)cc1N",3.318500000000001,73.58,300.1473925,5,3,6,2,4,1,5,22,42,0,2,2,0,0,0,0,0,2,0,0,0.23529411764705882
"A-1809","1,3-benzothiazole-2-thiol",-3.1515048921,"S=c1[nH]c2ccccc2s1","S=C1Nc2ccccc2S1",13.887367368381824,"S=c1[nH]c2ccccc2s1",2.4891000000000005,12.03,166.98634116,1,1,0,1,2,0,3,10,15,0,2,1,0,1,0,0,1,1,0,0,0
"A-1814","1-phenylpyrazolidin-3-one",-1.1448233011,"O=C1CCN(c2ccccc2)N1","O=C1CCN(c2ccccc2)N1",31.91759027482628,"O=C1CCN(c2ccccc2)N1",0.9279,32.34,162.07931294,3,1,1,1,2,1,3,12,22,0,2,1,1,1,0,1,1,1,0,0,0.2222222222222222
"A-1816","prop-1-en-2-ylbenzene",-3.0080823215,"C=C(C)c1ccccc1","C=C(C)c1ccccc1",18.67936916092942,"C=C(C)c1ccccc1",2.7197000000000005,0,118.07825032,0,0,1,0,0,0,0,9,19,0,1,1,0,0,0,0,0,1,0,0,0.1111111111111111
"A-1817","2-methoxy-4-(prop-2-en-1-yl)phenol",-2.1531779235,"C=CCc1ccc(O)c(OC)c1","C=CCc1ccc(O)c(OC)c1",23.996785425498203,"C=CCc1ccc(O)c(OC)c1",2.1292999999999997,29.46,164.083729624,2,1,3,1,2,0,2,12,24,0,1,1,0,0,0,0,0,1,0,0,0.2
"A-1823","1,3-difluorobenzene",-2.0003579549,"Fc1cccc(F)c1","Fc1cccc(F)c1",10.775467393479872,"Fc1cccc(F)c1",1.9648,0,114.028106568,0,0,0,0,0,0,2,8,12,0,1,1,0,0,0,0,0,1,0,0,0
"A-1826","(3Z)-hex-3-en-1-yl 2-methylpropanoate",-3.1741873711,"CCC=CCCOC(=O)C(C)C","CCC=CCCOC(=O)C(C)C",-5.1240658205177905,"CCC=CCCOC(=O)C(C)C",2.541900000000001,26.3,170.130679816,2,0,5,0,2,0,2,12,30,0,0,0,0,0,0,0,0,0,0,0,0.7
"A-1829","1,1,2,3,3-pentamethyl-2,3,4,5,6,7-hexahydro-1H-inden-4-one",-3.2653422506,"CC1C(C)(C)C2=C(C(=O)CCC2)C1(C)C","CC1C(C)(C)C2=C(C(=O)CCC2)C1(C)C",33.077133877313486,"CC1C(C)(C)C2=C(C(=O)CCC2)C1(C)C",3.738100000000003,17.07,206.167065324,1,0,0,0,1,0,1,15,37,1,2,0,0,2,0,0,0,0,0,2,0.7857142857142857
"A-1832","2-(4-{2-[4-(2-hydroxyethoxy)phenyl]propan-2-yl}phenoxy)ethan-1-ol",-3.4517905534,"CC(C)(c1ccc(OCCO)cc1)c1ccc(OCCO)cc1","CC(C)(c1ccc(OCCO)cc1)c1ccc(OCCO)cc1",65.83859662085075,"CC(C)(c1ccc(OCCO)cc1)c1ccc(OCCO)cc1",2.7547000000000015,58.92,316.167459248,4,2,8,2,4,0,4,23,47,0,2,2,0,0,0,0,0,2,0,0,0.3684210526315789
"A-1833","bis(propan-2-yl)amine",0.0362422138,"CC(C)[NH2+]C(C)C","CC(C)[NH2+]C(C)C",2.891757277004918,"CC(C)[NH2+]C(C)C",0.36659999999999965,16.61,102.12772593208999,1,2,2,1,0,0,1,7,23,0,0,0,0,0,0,0,0,0,0,0,1
"A-1839","1,2-bis(2-methylpropyl) benzene-1,2-dicarboxylate",-4.3838902648,"CC(C)COC(=O)c1ccccc1C(=O)OCC(C)C","CC(C)COC(=O)c1ccccc1C(=O)OCC(C)C",-3.370700098788719,"CC(C)COC(=O)c1ccccc1C(=O)OCC(C)C",3.3122000000000025,52.60000000000001,278.151809184,4,0,6,0,4,0,4,20,42,0,1,1,0,0,0,0,0,1,0,0,0.5
"A-1840","2-[({2,2,4-trimethyl-6-[({2-[(2-methylprop-2-enoyl)oxy]ethoxy}carbonyl)amino]hexyl}carbamoyl)oxy]ethyl 2-methylprop-2-enoate 2-[({2,4,4-trimethyl-6-[({2-[(2-methylprop-2-enoyl)oxy]ethoxy}carbonyl)amino]hexyl}carbamoyl)oxy]ethyl 2-methylprop-2-enoate",-4.619923834,"C=C(C)C(=O)OCCOC(=O)NCCC(C)CC(C)(C)CNC(=O)OCCOC(=O)C(=C)C","C=C(C)C(=O)OCCOC(=O)NCCC(C)CC(C)(C)CNC(=O)OCCOC(=O)C(=C)C",-89.2354158889724,"C=C(C)C(=O)OCCOC(=O)NCCC(C)CC(C)(C)CNC(=O)OCCOC(=O)C(=C)C",3.119900000000002,129.26,470.2628161759999,10,2,15,2,8,2,10,33,71,1,0,0,0,0,0,0,0,0,0,0,0.6521739130434783
"A-1843","1-(2-ethylbutyl)cyclohexane-1-carboxylic acid",-4.281694517,"CCC(CC)CC1(C(=O)[O-])CCCCC1","CCC(CC)CC1(C(=O)[O-])CCCCC1",27.753139740665883,"CCC(CC)CC1(C(=O)[O-])CCCCC1",2.5131000000000006,40.129999999999995,211.17035355591,2,0,5,0,2,0,2,15,38,0,1,0,1,1,0,0,0,0,1,1,0.9230769230769231
"A-1844","dibutyl but-2-enedioate",-4.3135515372,"CCCCOC(=O)C=CC(=O)OCCCC","CCCCOC(=O)C=CC(=O)OCCCC",-27.454666467391263,"CCCCOC(=O)C=CC(=O)OCCCC",2.2291999999999996,52.60000000000001,228.13615912,4,0,8,0,4,0,4,16,36,0,0,0,0,0,0,0,0,0,0,0,0.6666666666666666
"A-1850","2-[(2-methylprop-2-enoyl)oxy]ethyl 2-methylprop-2-enoate",-2.2613132646,"C=C(C)C(=O)OCCOC(=O)C(=C)C","C=C(C)C(=O)OCCOC(=O)C(=C)C",-31.20062982091008,"C=C(C)C(=O)OCCOC(=O)C(=C)C",1.2249999999999999,52.6,198.089208928,4,0,5,0,4,0,4,14,28,0,0,0,0,0,0,0,0,0,0,0,0.4
"A-1857","benzyl 4-hydroxybenzoate",-3.3249813225,"O=C(OCc1ccccc1)c1ccc(O)cc1","O=C(OCc1ccccc1)c1ccc(O)cc1",16.75376204285756,"O=C(OCc1ccccc1)c1ccc(O)cc1",2.749200000000001,46.53,228.078644244,3,1,3,1,3,0,3,17,29,0,2,2,0,0,0,0,0,2,0,0,0.07142857142857142
"A-1859","(2E)-3-phenylprop-2-enenitrile",-2.0829703418,"N#CC=Cc1ccccc1","N#CC=Cc1ccccc1",20.65841108818035,"N#CC=Cc1ccccc1",2.2233799999999997,23.79,129.057849224,1,0,1,0,1,0,1,10,17,0,1,1,0,0,0,0,0,1,0,0,0
"A-1860","2-[(3-aminophenyl)sulfonyl]ethyl hydrogen sulfate",-1.4238808493,"Nc1cccc(S(=O)(=O)CCOS(=O)(=O)[O-])c1","Nc1cccc(S(=O)(=O)CCOS(=O)(=O)[O-])c1",-67.42907464818083,"Nc1cccc(S(=O)(=O)CCOS(=O)(=O)[O-])c1",-0.4806999999999999,126.59,279.99550261991,7,2,5,1,7,0,9,17,27,0,1,1,0,0,0,0,0,1,0,0,0.25
"A-1861","(3E)-4-(2,6,6-trimethylcyclohex-2-en-1-yl)but-3-en-2-one",-3.2586779358,"CC(=O)C=CC1C(C)=CCCC1(C)C","CC(=O)C=CC1C(C)=CCCC1(C)C",19.17408548770115,"CC(=O)C=CC1C(=CCCC1(C)C)C",3.5141000000000027,17.07,192.15141526,1,0,2,0,1,0,1,14,34,1,1,0,0,1,0,0,0,0,0,1,0.6153846153846154
"A-1864","2-amino-4-sulfobenzoic acid",-1.3156745209,"Nc1cc(S(=O)(=O)[O-])ccc1C(=O)[O-]","Nc1cc(S(=O)(=O)[O-])ccc1C(=O)[O-]",56.75442181924006,"Nc1cc(S(=O)(=O)[O-])ccc1C(=O)[O-]",-1.4636000000000002,123.35,214.98994041982002,6,2,2,1,6,0,7,14,19,0,1,1,0,0,0,0,0,1,0,0,0
"A-1865","4-(2-aminoethyl)phenol",-1.1161078312,"[NH3+]CCc1ccc(O)cc1","[NH3+]CCc1ccc(O)cc1",10.850696596753405,"[NH3+]CCc1ccc(O)cc1",0.1765999999999997,47.870000000000005,138.09134042409,2,4,2,2,1,0,2,10,22,0,1,1,0,0,0,0,0,1,0,0,0.25
"A-1867","2-butoxyethyl benzoate",-3.3224225356,"CCCCOCCOC(=O)c1ccccc1","CCCCOCCOC(=O)c1ccccc1",18.827063299056867,"CCCCOCCOC(=O)c1ccccc1",2.660100000000001,35.53,222.125594436,3,0,7,0,3,0,3,16,34,0,1,1,0,0,0,0,0,1,0,0,0.46153846153846156
"A-1868","2-methoxy-4-nitroaniline",-3.2045127381,"COc1cc([N+](=O)[O-])ccc1N","COc1cc([N+](=O)[O-])ccc1N",31.01138780690252,"COc1cc([N+](=O)[O-])ccc1N",1.1855999999999998,78.39,168.053492116,5,2,2,1,4,0,5,12,20,0,1,1,0,0,0,0,0,1,0,0,0.14285714285714285
"A-1870","2-({3-[bis(carboxymethyl)amino]propyl}(carboxymethyl)amino)acetic acid",-1.4690725372,"O=C([O-])C[NH+](CCC[NH+](CC(=O)[O-])CC(=O)[O-])CC(=O)[O-]","O=C([O-])C[NH+](CCC[NH+](CC(=O)[O-])CC(=O)[O-])CC(=O)[O-]",51.40294300535564,"O=C([O-])C[NH+](CCC[NH+](CC(=O)[O-])CC(=O)[O-])CC(=O)[O-]",-9.85410000000001,169.39999999999998,304.09176263181996,10,2,12,2,8,0,10,21,37,0,0,0,0,0,0,0,0,0,0,0,0.6363636363636364
"A-1871","3,4,5-trifluorophenol",-0.1536096917,"Oc1cc(F)c(F)c(F)c1","Oc1cc(F)c(F)c(F)c1",15.318044845198648,"Oc1cc(F)c(F)c(F)c1",1.8094999999999997,20.23,148.013599376,1,1,0,1,1,0,4,10,13,0,1,1,0,0,0,0,0,1,0,0,0
"A-1872","hexanoic acid",-1.0522193787,"CCCCCC(=O)[O-]","CCCCCC(=O)[O-]",3.1641506459140962,"CCCCCC(=O)[O-]",0.3166,40.129999999999995,115.07645317191,2,0,4,0,2,0,2,8,19,0,0,0,0,0,0,0,0,0,0,0,0.8333333333333334
"A-1873","1,2,3-tributyl 2-hydroxypropane-1,2,3-tricarboxylate",-3.5452709716,"CCCCOC(=O)CC(O)(CC(=O)OCCCC)C(=O)OCCCC","CCCCOC(=O)CC(O)(CC(=O)OCCCC)C(=O)OCCCC",-56.56008860394894,"CCCCOC(=O)CC(O)(CC(=O)OCCCC)C(=O)OCCCC",2.5276000000000005,99.13000000000001,360.214803364,7,1,14,1,7,0,7,25,57,0,0,0,0,0,0,0,0,0,0,0,0.8333333333333334
"A-1874","(2,4-dimethylcyclohex-3-en-1-yl)methyl acetate",-3.2503985577,"CC(=O)OCC1CCC(C)=CC1C","CC(=O)OCC1CCC(C)=CC1C",-3.2035176686221987,"CC(=O)OCC1CCC(=CC1C)C",2.541900000000001,26.3,182.130679816,2,0,2,0,2,0,2,13,31,2,1,0,0,1,0,0,0,0,0,1,0.7272727272727273
"A-1875","2-ethylhexyl cyanoacetate",-3.2864784846,"CCCCC(CC)COC(=O)CC#N","CCCCC(CC)COC(=O)CC#N",-11.337260325073423,"CCCCC(CC)COC(=O)CC#N",2.6596800000000007,50.09,197.141578848,3,0,7,0,3,0,3,14,33,1,0,0,0,0,0,0,0,0,0,0,0.8181818181818182
"A-1877","6-{[amino(phenyl)acetyl]amino}-3,3-dimethyl-7-oxo-4-thia-1-azabicyclo[3.2.0]heptane-2-carboxylic acid",-1.5390164423,"CC1(C)S[C@@H]2[C@H](NC(=O)[C@H]([NH3+])c3ccccc3)C(=O)N2[C@H]1C(=O)[O-]","CC1(C)S[C@@H]2[C@H](NC(=O)[C@H]([NH3+])c3ccccc3)C(=O)N2[C@H]1C(=O)[O-]",-59.130155185420456,"CC1(C)S[C@@H]2[C@H](NC(=O)[C@H]([NH3+])c3ccccc3)C(=O)N2[C@H]1C(=O)[O-]",-1.7333999999999976,117.18,349.10962708799997,7,4,4,2,5,2,8,24,43,4,3,1,2,2,0,2,2,1,0,0,0.4375
"A-1878","4-[(4-aminophenyl)methyl]aniline",-2.2929334424,"Nc1ccc(Cc2ccc(N)cc2)cc1","Nc1ccc(Cc2ccc(N)cc2)cc1",27.565235387857275,"Nc1ccc(Cc2ccc(N)cc2)cc1",2.4418000000000006,52.04,198.115698448,2,4,2,2,2,0,2,15,29,0,2,2,0,0,0,0,0,2,0,0,0.07692307692307693
"A-1879","6-ethoxy-2,2,4-trimethyl-1,2-dihydroquinoline",-3.332762335,"CCOc1ccc2c(c1)C(C)=CC(C)(C)N2","CCOc1ccc2c(c1)C(C)=CC(C)(C)N2",40.80936990183312,"CCOc1ccc2c(c1)C(=CC(C)(C)N2)C",3.692700000000002,21.259999999999998,217.146664228,2,1,2,1,2,0,2,16,35,0,2,1,0,1,0,0,1,1,0,0,0.42857142857142855
"A-1881","nonanal",-3.1487064763,"CCCCCCCCC=O","CCCCCCCCC=O",-0.6476855417582964,"CCCCCCCCC=O",2.935900000000001,17.07,142.135765196,1,0,7,0,1,0,1,10,28,0,0,0,0,0,0,0,0,0,0,0,0.8888888888888888
"A-1887","2-(2-ethoxyethoxy)ethyl acetate",0.7539645196,"CCOCCOCCOC(C)=O","CCOCCOCCOC(C)=O",14.52089072083701,"CCOCCOCCOC(=O)C",0.6025999999999998,44.760000000000005,176.104858992,4,0,7,0,4,0,4,12,28,0,0,0,0,0,0,0,0,0,0,0,0.875
"A-1904","2-hydroxy-4-methylbenzoic acid",-1.1822691023,"Cc1ccc(C(=O)[O-])c(O)c1","Cc1ccc(C(=O)[O-])c(O)c1",19.715737690074494,"Cc1ccc(C(=O)[O-])c(O)c1",0.0641199999999999,60.36,151.04006766391,3,1,1,1,3,0,3,11,18,0,1,1,0,0,0,0,0,1,0,0,0.125
"A-1907","2-hydroxy-5-nitrobenzoic acid",-2.262733408,"O=C([O-])c1cc([N+](=O)[O-])ccc1[O-]","O=C([O-])c1cc([N+](=O)[O-])ccc1[O-]",116.9616506681734,"O=C([O-])c1cc([N+](=O)[O-])ccc1[O-]",-0.9681,106.33,181.00221935582002,6,0,2,0,5,0,6,13,16,0,1,1,0,0,0,0,0,1,0,0,0
"A-1912","1,2-dimethyl-4-nitrobenzene",-3.1794512484,"Cc1ccc([N+](=O)[O-])cc1C","Cc1ccc([N+](=O)[O-])cc1C",27.132488685300043,"Cc1ccc([N+](=O)[O-])cc1C",2.21164,43.14,151.063328528,3,0,1,0,2,0,3,11,20,0,1,1,0,0,0,0,0,1,0,0,0.25
"A-1914","2-phenylacetonitrile",-3.0687460001,"N#CCc1ccccc1","N#CCc1ccccc1",19.51235603154479,"N#CCc1ccccc1",1.75268,23.79,117.057849224,1,0,1,0,1,0,1,9,16,0,1,1,0,0,0,0,0,1,0,0,0.125
"A-1916","4,4'-methylenebis(2,6-dimethylphenol)",-3.408824851,"Cc1cc(Cc2cc(C)c(O)c(C)c2)cc(C)c1O","Cc1cc(Cc2cc(C)c(O)c(C)c2)cc(C)c1O",20.765760750110115,"Cc1cc(Cc2cc(C)c(O)c(C)c2)cc(C)c1O",3.922280000000003,40.46,256.14632988,2,2,2,2,2,0,2,19,39,0,2,2,0,0,0,0,0,2,0,0,0.29411764705882354
"A-1922","tridecan-1-ol",-3.3018240282,"CCCCCCCCCCCCCO","CCCCCCCCCCCCCO",-1.0617096573063771,"CCCCCCCCCCCCCO",4.289700000000004,20.23,200.21401551600002,1,1,11,1,1,0,1,14,42,0,0,0,0,0,0,0,0,0,0,0,1
"A-1925","2-tert-butylcyclohexyl ethyl carbonate",-4.3211402828,"CCOC(=O)OC1CCCCC1C(C)(C)C","CCOC(=O)OC1CCCCC1C(C)(C)C",-16.122848277678514,"CCOC(=O)OC1CCCCC1C(C)(C)C",3.764400000000003,35.53,228.172544628,3,0,2,0,3,0,3,16,40,2,1,0,1,1,0,0,0,0,1,1,0.9230769230769231
"A-1927","hexanoyl hexanoate",-4.296805043,"CCCCCC(=O)OC(=O)CCCCC","CCCCCC(=O)OC(=O)CCCCC",-18.333393775230146,"CCCCCC(=O)OC(=O)CCCCC",3.216800000000002,43.370000000000005,214.156894564,3,0,8,0,3,0,3,15,37,0,0,0,0,0,0,0,0,0,0,0,0.8333333333333334
"A-1930","undecan-2-one",-4.2018206695,"CCCCCCCCCC(C)=O","CCCCCCCCCC(C)=O",1.0243512641947292,"CCCCCCCCCC(=O)C",3.7161000000000026,17.07,170.167065324,1,0,8,0,1,0,1,12,34,0,0,0,0,0,0,0,0,0,0,0,0.9090909090909091
"A-1931","[2-(tert-butylperoxy)propan-2-yl]benzene",-4.2909341502,"CC(C)(C)OOC(C)(C)c1ccccc1","CC(C)(C)OOC(C)(C)c1ccccc1",32.556639056150786,"CC(C)(C)OOC(C)(C)c1ccccc1",3.6684000000000028,18.46,208.14632988,2,0,3,0,2,0,2,15,35,0,1,1,0,0,0,0,0,1,0,0,0.5384615384615384
"A-1933","2-methylheptyl 2-sulfanylacetate",-4.2850368969,"CC(C)CCCCCOC(=O)CS","CC(C)CCCCCOC(=O)CS",9.326464664652498,"CC(C)CCCCCOC(=O)CS",2.675800000000001,26.3,204.11840088,2,0,7,1,3,0,3,13,33,0,0,0,0,0,0,0,0,0,0,0,0.9
"A-1934","octa-1,7-diene",-4.0232731502,"C=CCCCCC=C","C=CCCCCC=C",-1.6117550163599155,"C=CCCCCC=C",2.918800000000002,0,110.109550448,0,0,5,0,0,0,0,8,22,0,0,0,0,0,0,0,0,0,0,0,0.5
"A-1939","2-tert-butylcyclohexyl acetate",-4.2973358545,"CC(=O)O[C@@H]1CCCC[C@@H]1C(C)(C)C","CC(=O)O[C@@H]1CCCC[C@@H]1C(C)(C)C",8.849038050627684,"CC(=O)O[C@@H]1CCCC[C@@H]1C(C)(C)C",3.1544000000000016,26.3,198.161979944,2,0,1,0,2,0,2,14,36,2,1,0,1,1,0,0,0,0,1,1,0.9166666666666666
"A-1942","N-[3-(dimethylamino)propyl]octadecanamide",-4.5666142382,"CCCCCCCCCCCCCCCCCC(=O)NCCC[NH+](C)C","CCCCCCCCCCCCCCCCCC(=O)NCCC[NH+](C)C",-26.212459984664413,"CCCCCCCCCCCCCCCCCC(=O)NCCC[NH+](C)C",4.898700000000003,33.54,369.38394060809003,3,2,20,2,1,1,3,26,75,0,0,0,0,0,0,0,0,0,0,0,0.9565217391304348
"A-1953","dodecan-1-ol",-4.9847464515,"CCCCCCCCCCCCO","CCCCCCCCCCCCO",-0.9602356306951709,"CCCCCCCCCCCCO",3.8996000000000035,20.23,186.198365452,1,1,10,1,1,0,1,13,39,0,0,0,0,0,0,0,0,0,0,0,1
"A-1956","O,O,S-tris(4-aminophenyl) thiophosphate",-5.3094071365,"Nc1ccc(OP(=S)(Oc2ccc(N)cc2)Oc2ccc(N)cc2)cc1","Nc1ccc(OP(=S)(Oc2ccc(N)cc2)Oc2ccc(N)cc2)cc1",33.927271869665326,"Nc1ccc(OP(=S)(Oc2ccc(N)cc2)Oc2ccc(N)cc2)cc1",4.1945000000000014,105.75,387.080649066,6,6,6,3,7,0,8,26,44,0,3,3,0,0,0,0,0,3,0,0,0
"A-1958","2-[4-[2-[4-[2-(2-methylprop-2-enoyloxy)ethoxy]phenyl]propan-2-yl]phenoxy]ethyl 2-methylprop-2-enoate",-5.3792018861,"C=C(C)C(=O)OCCOc1ccc(C(C)(C)c2ccc(OCCOC(=O)C(=C)C)cc2)cc1","C=C(C)C(=O)OCCOc1ccc(C(C)(C)c2ccc(OCCOC(=O)C(=C)C)cc2)cc1",31.854022114690967,"C=C(C)C(=O)OCCOc1ccc(C(C)(C)c2ccc(OCCOC(=O)C(=C)C)cc2)cc1",5.008700000000005,71.06,452.21988874399995,6,0,12,0,6,0,6,33,65,0,2,2,0,0,0,0,0,2,0,0,0.3333333333333333
"A-1959","(3aR,5aS,9aS,9bR)-3a,6,6,9a-tetramethyl-dodecahydronaphtho[2,1-b]furan",-5.0994877858,"CC1(C)CCC[C@@]2(C)[C@H]1CC[C@@]1(C)OCC[C@H]21","CC1(C)CCC[C@@]2(C)[C@H]1CC[C@@]1(C)OCC[C@H]21",42.286849076885055,"CC1(C)CCC[C@@]2(C)[C@H]1CC[C@@]1(C)OCC[C@H]21",4.408000000000004,9.23,236.21401551600002,1,0,0,0,1,0,1,17,45,4,3,0,3,3,0,1,1,0,2,2,1
"A-1960","3a,6,6,9a-tetramethyl-dodecahydronaphtho[2,1-b]furan",-5.0994877858,"CC1(C)CCCC2(C)C1CCC1(C)OCCC12","CC1(C)CCCC2(C)C1CCC1(C)OCCC12",44.287000725814245,"CC1(C)CCCC2(C)C1CCC1(C)OCCC21",4.408000000000004,9.23,236.21401551600002,1,0,0,0,1,0,1,17,45,4,3,0,3,3,0,1,1,0,2,2,1
"A-1961","[(1E)-2-(diethoxymethyl)hept-1-en-1-yl]benzene",-5.1720565184,"CCCCCC(=Cc1ccccc1)C(OCC)OCC","CCCCCC(=Cc1ccccc1)C(OCC)OCC",-11.44368653787904,"CCCCCC(=Cc1ccccc1)C(OCC)OCC",5.049400000000005,18.46,276.208930136,2,0,10,0,2,0,2,20,48,0,1,1,0,0,0,0,0,1,0,0,0.5555555555555556
"A-1967","N,N'-(3,3'-dimethylbiphenyl-4,4'-diyl)bis(3-oxobutanamide)",-5.3250182341,"CC(=O)CC(=O)Nc1ccc(-c2ccc(NC(=O)CC(C)=O)c(C)c2)cc1C","CC(=O)CC(=O)Nc1ccc(-c2ccc(NC(=O)CC(C)=O)c(C)c2)cc1C",5.247028364946136,"CC(=O)CC(=O)Nc1ccc(c2ccc(NC(=O)CC(=O)C)c(C)c2)cc1C",3.805640000000002,92.34,380.173607248,6,2,7,2,4,2,6,28,52,0,2,2,0,0,0,0,0,2,0,0,0.2727272727272727
"A-1968","N-(4-acetamidophenyl)-3-hydroxy-2-naphthamide",-5.2503495118,"CC(=O)Nc1ccc(NC(=O)c2cc3ccccc3cc2O)cc1","CC(=O)Nc1ccc(NC(=O)c2cc3ccccc3cc2O)cc1",45.90014504002502,"CC(=O)Nc1ccc(NC(=O)c2cc3ccccc3cc2O)cc1",3.7561000000000018,78.43,320.11609237199997,5,3,3,3,3,2,5,24,40,0,3,3,0,0,0,0,0,3,0,0,0.05263157894736842
"A-1973","(1,3-benzothiazol-2-ylsulfanyl)(tert-butyl)amine",-5.136722389,"CC(C)(C)NSc1nc2ccccc2s1","CC(C)(C)NSc1nc2ccccc2s1",25.72743819999573,"CC(C)(C)NSc1nc2ccccc2s1",3.6915000000000022,24.92,238.059840448,2,1,2,1,4,0,4,15,29,0,2,2,0,0,1,0,0,1,0,0,0.36363636363636365
"A-1978","3,7-dimethyloct-6-en-1-yl butyrate",-5.1426120809,"CCCC(=O)OCCC(C)CCC=C(C)C","CCCC(=O)OCCC(C)CCC=C(C)C",-2.6659647177463928,"CCCC(=O)OCCC(C)CCC=C(C)C",4.102300000000004,26.3,226.193280072,2,0,8,0,2,0,2,16,42,1,0,0,0,0,0,0,0,0,0,0,0.7857142857142857
"A-1981","3-hydroxy-N-(4-methoxyphenyl)-2-naphthamide",-5.2632246549,"COc1ccc(NC(=O)c2cc3ccccc3cc2O)cc1","COc1ccc(NC(=O)c2cc3ccccc3cc2O)cc1",52.818577649717476,"COc1ccc(NC(=O)c2cc3ccccc3cc2O)cc1",3.806300000000002,58.56,293.10519334,4,2,3,2,3,1,4,22,37,0,3,3,0,0,0,0,0,3,0,0,0.05555555555555555
"A-1982","4-{1-[4-(cyanooxy)phenyl]ethyl}phenyl cyanate",-5.2179508887,"CC(c1ccc(OC#N)cc1)c1ccc(OC#N)cc1","CC(c1ccc(OC#N)cc1)c1ccc(OC#N)cc1",40.45094856249303,"CC(c1ccc(OC#N)cc1)c1ccc(OC#N)cc1",3.5581600000000018,66.03999999999999,264.089877624,4,0,4,0,4,0,4,20,32,0,2,2,0,0,0,0,0,2,0,0,0.125