"ID","Name","Solubility","SMILES Canonical","Smiles (Optimized Geometry)","Energy","Smiles","SlogP","TPSA","ExactMW","NumLipinskiHBA","NumLipinskiHBD","NumRotatableBonds","NumHBD","NumHBA","NumAmideBonds","NumHeteroAtoms","NumHeavyAtoms","NumAtoms","NumStereocenters","NumRings","NumAromaticRings","NumSaturatedRings","NumAliphaticRings","NumAromaticHeterocycles","NumSaturatedHeterocycles","NumAliphaticHeterocycles","NumAromaticCarbocycles","NumSaturatedCarbocycles","NumAliphaticCarbocycles","FractionCSP3"
"A-1620","4-(2,6,6-trimethylcyclohex-1-en-1-yl)but-3-en-2-one",-3.0798638184,"CC(=O)C=CC1=C(C)CCCC1(C)C","CC(=O)C=CC1=C(C)CCCC1(C)C",19.87483437015633,"CC(=O)C=CC1=C(C)CCCC1(C)C",3.6582000000000026,17.07,192.15141526,1,0,2,0,1,0,1,14,34,0,1,0,0,1,0,0,0,0,0,1,0.6153846153846154
"A-1623","N,N-dimethyldecan-1-amine",-4.0452878346,"CCCCCCCCCC[NH+](C)C","CCCCCCCCCC[NH+](C)C",0.5104793823465662,"CCCCCCCCCC[NH+](C)C",2.2716000000000003,4.44,186.22162631609,1,1,9,1,0,0,1,13,41,0,0,0,0,0,0,0,0,0,0,0,1
"A-1624","ethyl 3-[(diisopropoxyphosphorothioyl)sulfanyl]propanoate",-4.2747784981,"CCOC(=O)CCSP(=S)(OC(C)C)OC(C)C","CCOC(=O)CCSP(=S)(OC(C)C)OC(C)C",-90.22406935102484,"CCOC(=O)CCSP(=S)(OC(C)C)OC(C)C",3.7473000000000027,44.760000000000005,314.077537846,4,0,9,0,6,0,7,18,41,0,0,0,0,0,0,0,0,0,0,0,0.9090909090909091
"A-1626","4-Tricyclodecylidene butanal",-4.0901879127,"O=CCCC=C1CC2CC1C1CCCC21","O=CCCC=C1CC2CC1C1CCCC21",31.806303915156963,"O=CCCC=C1CC2CC1C1CCCC21",3.3480000000000025,17.07,204.15141526,1,0,3,0,1,0,1,15,35,4,3,0,3,3,0,0,0,0,3,3,0.7857142857142857
"A-1627","2-methyloctane-2-thiol",-3.9901601094,"CCCCCCC(C)(C)S","CCCCCCC(C)(C)S",2.4436684409810963,"CCCCCCC(C)(C)S",3.6652000000000027,0,160.12857164,0,0,5,1,1,0,1,10,30,0,0,0,0,0,0,0,0,0,0,0,1
"A-1628","3,7-dimethyloct-6-en-1-yl formate",-4.0559608323,"CC(C)=CCCC(C)CCOC=O","CC(C)=CCCC(C)CCOC=O",-6.128860123104943,"CC(=CCCC(C)CCOC=O)C",2.9320000000000013,26.3,184.14632988,2,0,7,0,2,0,2,13,33,1,0,0,0,0,0,0,0,0,0,0,0.7272727272727273
"A-1634","2-methyldecanal",-4.0270844645,"CCCCCCCCC(C)C=O","CCCCCCCCC(C)C=O",0.7174563330030423,"CCCCCCCCC(C)C=O",3.5720000000000027,17.07,170.167065324,1,0,8,0,1,0,1,12,34,1,0,0,0,0,0,0,0,0,0,0,0.9090909090909091
"A-1635","dimethyl 2,5-dioxocyclohexane-1,4-dicarboxylate",-4.1541956574,"COC(=O)C1CC(=O)C(C(=O)OC)CC1=O","COC(=O)C1CC(=O)C(C(=O)OC)CC1=O",-73.05497647051962,"COC(=O)C1CC(=O)C(C(=O)OC)CC1=O",-0.5032000000000003,86.74000000000001,228.063388104,6,0,2,0,6,0,6,16,28,2,1,0,1,1,0,0,0,0,1,1,0.6
"A-1638","3-methyl-N-nitro-3,6-dihydro-2H-1,3,5-oxadiazin-4-amine",-1.0022923277,"CN1COCN=C1N[N+](=O)[O-]","CN1COCN=C1N[N+](=O)[O-]",-123.61931360359358,"CN1COCN=C1N[N+](=O)[O-]",-0.9993000000000001,80,160.059640116,7,1,1,1,5,0,7,11,19,0,1,0,0,1,0,0,1,0,0,0,0.75
"A-1639","(2R,3R,4S,5R)-2-(6-hydroxy-9H-purin-9-yl)-5-(hydroxymethyl)oxolane-3,4-diol",-1.2298486435,"O=c1nc[nH]c2c1ncn2C1OC(CO)C(O)C1O","O=C1N=CNc2c1ncn2C1OC(CO)C(O)C1O",71.09578333652814,"O=c1nc[nH]c2c1ncn2C1OC(CO)C(O)C1O",-1.9114000000000007,129.20000000000002,268.08076948400003,9,4,2,4,8,1,9,19,31,4,3,1,1,2,1,1,2,0,0,0,0.5
"A-1640","2,3,6-trimethylphenol",-1.9355008883,"Cc1ccc(C)c(O)c1C","Cc1ccc(C)c(O)c1C",15.153101094197206,"Cc1ccc(C)c(O)c1C",2.3174600000000005,20.23,136.088815004,1,1,0,1,1,0,1,10,22,0,1,1,0,0,0,0,0,1,0,0,0.3333333333333333
"A-1643","1,3-xylene",-2.8328690378,"Cc1cccc(C)c1","Cc1cccc(C)c1",11.410209426559211,"Cc1cccc(C)c1",2.30344,0,106.07825032,0,0,0,0,0,0,0,8,18,0,1,1,0,0,0,0,0,1,0,0,0.25
"A-1646","2-octanamidoacetic acid",-2.1115375925,"CCCCCCCC(=O)NCC(=O)[O-]","CCCCCCCC(=O)NCC(=O)[O-]",29.659386766517528,"CCCCCCCC(=O)NCC(=O)[O-]",0.2129999999999999,69.23,200.12921701591,4,1,8,1,3,1,4,14,32,0,0,0,0,0,0,0,0,0,0,0,0.8
"A-1647","(1,5,5-trimethyl-6-bicyclo[2.2.1]heptanyl) acetate",-3.8745968837,"CC(=O)OC1C2(C)CCC(C2)C1(C)C","CC(=O)OC1C2(C)CCC(C2)C1(C)C",33.59033522688386,"CC(=O)OC1C2(C)CCC(C2)C1(C)C",2.7643000000000013,26.3,196.14632988,2,0,1,0,2,0,2,14,34,3,2,0,2,2,0,0,0,0,2,2,0.9166666666666666
"A-1650","(2S)-2-{[(benzyloxy)carbonyl]amino}-2-cyclohexylacetic acid",-3.2854336032,"O=C(N[C@H](C(=O)[O-])C1CCCCC1)OCc1ccccc1","O=C(N[C@H](C(=O)[O-])C1CCCCC1)OCc1ccccc1",20.521938322353265,"O=C(N[C@H](C(=O)[O-])C1CCCCC1)OCc1ccccc1",1.611599999999999,78.46000000000001,290.13978169991003,5,1,5,1,4,1,5,21,41,1,2,1,1,1,0,0,0,1,1,1,0.5
"A-1651","(4E)-3-methyl-5-(2,6,6-trimethylcyclohex-1-en-1-yl)penta-1,4-dien-3-ol",-3.164147933,"C=CC(C)(O)C=CC1=C(C)CCCC1(C)C","C=CC(C)(O)C=CC1=C(C)CCCC1(C)C",15.634121469794552,"C=CC(C)(O)C=CC1=C(C)CCCC1(C)C",4.006200000000003,20.23,220.182715388,1,1,3,1,1,0,1,16,40,1,1,0,0,1,0,0,0,0,0,1,0.6
"A-1652","methyl oct-2-ynoate",-3.0091327736,"CCCCCC#CC(=O)OC","CCCCCC#CC(=O)OC",-5.128636199498169,"CCCCCC#CC(=O)OC",1.7431,26.3,154.099379688,2,0,3,0,2,0,2,11,25,0,0,0,0,0,0,0,0,0,0,0,0.6666666666666666
"A-1662","1,2-dimethyl-3-nitrobenzene",-3.0033599893,"Cc1cccc([N+](=O)[O-])c1C","Cc1cccc([N+](=O)[O-])c1C",39.51897485488114,"Cc1cccc([N+](=O)[O-])c1C",2.21164,43.14,151.063328528,3,0,1,0,2,0,3,11,20,0,1,1,0,0,0,0,0,1,0,0,0.25
"A-1665","phenyl 2-hydroxybenzoate",-3.1547687559,"O=C(Oc1ccccc1)c1ccccc1O","O=C(Oc1ccccc1)c1ccccc1O",42.91369170942175,"O=C(Oc1ccccc1)c1ccccc1O",2.611400000000001,46.53,214.06299418,3,1,2,1,3,0,3,16,26,0,2,2,0,0,0,0,0,2,0,0,0
"A-1668","3,7-dimethyloct-6-en-1-yl acetate",-4.0959387302,"CC(=O)OCCC(C)CCC=C(C)C","CC(=O)OCCC(C)CCC=C(C)C",-3.973414676366928,"CC(=O)OCCC(C)CCC=C(C)C",3.3221000000000025,26.3,198.161979944,2,0,6,0,2,0,2,14,36,1,0,0,0,0,0,0,0,0,0,0,0.75
"A-1669","3,3,4,4,5,5,6,6,6-nonafluorohex-1-ene",-4.1979376007,"C=CC(F)(F)C(F)(F)C(F)(F)C(F)(F)F","C=CC(F)(F)C(F)(F)C(F)(F)C(F)(F)F",51.25064007279105,"C=CC(F)(F)C(F)(F)C(F)(F)C(F)(F)F",3.6406,0,246.009104076,0,0,3,0,0,0,9,15,18,0,0,0,0,0,0,0,0,0,0,0,0.6666666666666666
"A-1670","2-phenylethyl 2-phenylacetate",-4.1887477927,"O=C(Cc1ccccc1)OCCc1ccccc1","O=C(Cc1ccccc1)OCCc1ccccc1",31.373126357371127,"O=C(Cc1ccccc1)OCCc1ccccc1",3.0150000000000015,26.3,240.115029752,2,0,5,0,2,0,2,18,34,0,2,2,0,0,0,0,0,2,0,0,0.1875
"A-1672","2-({2,2-bis[(prop-2-enoyloxy)methyl]butoxy}methyl)-2-[(prop-2-enoyloxy)methyl]butyl prop-2-enoate",-4.4927855243,"C=CC(=O)OCC(CC)(COCC(CC)(COC(=O)C=C)COC(=O)C=C)COC(=O)C=C","C=CC(=O)OCC(CC)(COCC(CC)(COC(=O)C=C)COC(=O)C=C)COC(=O)C=C",-37.460736573039995,"C=CC(=O)OCC(CC)(COCC(CC)(COC(=O)C=C)COC(=O)C=C)COC(=O)C=C",2.712600000000001,114.43,466.2202826679999,9,0,18,0,9,0,9,33,67,0,0,0,0,0,0,0,0,0,0,0,0.5
"A-1674","(2,4,6-trioxo-1,3,5-triazine-1,3,5(2H,4H,6H)-triyl)tri-2,1-ethanediyl triacrylate",-2.4514194624,"C=CC(=O)OCCn1c(=O)n(CCOC(=O)C=C)c(=O)n(CCOC(=O)C=C)c1=O","C=CC(=O)OCCN1C(=O)N(CCOC(=O)C=C)C(=O)N(CCOC(=O)C=C)C1=O",-227.22921681835555,"C=CC(=O)OCCn1c(=O)n(CCOC(=O)C=C)c(=O)n(CCOC(=O)C=C)c1=O",0.4535999999999998,139.82999999999998,423.127779252,12,0,12,0,9,6,12,30,51,0,1,0,1,1,0,1,1,0,0,0,0.3333333333333333
"A-1677","4-isopropylbenzonitrile",-2.9887953027,"CC(C)c1ccc(C#N)cc1","CC(C)c1ccc(C#N)cc1",15.861707416076008,"CC(C)c1ccc(C#N)cc1",2.681680000000001,23.79,145.089149352,1,0,1,0,1,0,1,11,22,0,1,1,0,0,0,0,0,1,0,0,0.3
"A-1678","1,2-bis(prop-2-en-1-yl) benzene-1,2-dicarboxylate",-3.2211356868,"C=CCOC(=O)c1ccccc1C(=O)OCC=C","C=CCOC(=O)c1ccccc1C(=O)OCC=C",-24.468874948930555,"C=CCOC(=O)c1ccccc1C(=O)OCC=C",2.3722000000000003,52.60000000000001,246.089208928,4,0,6,0,4,0,4,18,32,0,1,1,0,0,0,0,0,1,0,0,0.14285714285714285
"A-1679","1,3-diphenylguanidine",-2.1575163863,"NC(Nc1ccccc1)=[NH+]c1ccccc1","NC(Nc1ccccc1)=[NH+]c1ccccc1",27.291909443711106,"NC(=[NH+]c1ccccc1)Nc1ccccc1",0.8254999999999992,52.019999999999996,212.11822386808998,3,4,2,3,0,0,3,16,30,0,2,2,0,0,0,0,0,2,0,0,0
"A-1685","3,3,5-trimethylcyclohexanol",-1.9916598479,"CC1CC(O)CC(C)(C)C1","CC1CC(O)CC(C)(C)C1",12.491876254202397,"CC1CC(O)CC(C)(C)C1",2.1935000000000002,20.23,142.135765196,1,1,0,1,1,0,1,10,28,2,1,0,1,1,0,0,0,0,1,1,1
"A-1686","N,N-dimethylaniline",-1.9220736974,"CN(C)c1ccccc1","CN(C)c1ccccc1",23.58161074616233,"CN(C)c1ccccc1",1.7526,3.24,121.08914935199999,1,0,1,0,1,0,1,9,20,0,1,1,0,0,0,0,0,1,0,0,0.25
"A-1690","(2E)-3-phenylprop-2-enal",-1.9688182578,"O=CC=Cc1ccccc1","O=CC=Cc1ccccc1",19.898808641905966,"O=CC=Cc1ccccc1",1.8987,17.07,132.057514876,1,0,2,0,1,0,1,10,18,0,1,1,0,0,0,0,0,1,0,0,0
"A-1692","1,1,2,2,3,3,4,4,4-nonafluoro-N-(2-hydroxyethyl)-N-methylbutane-1-sulfonamide",-3.4036850425,"CN(CCO)S(=O)(=O)C(F)(F)C(F)(F)C(F)(F)C(F)(F)F","CN(CCO)S(=O)(=O)C(F)(F)C(F)(F)C(F)(F)C(F)(F)F",37.927867471690334,"CN(CCO)S(=O)(=O)C(F)(F)C(F)(F)C(F)(F)C(F)(F)F",1.6660000000000001,57.61,357.008118096,4,1,6,1,3,0,14,21,29,0,0,0,0,0,0,0,0,0,0,0,1
"A-1693","N-[(8E)-1,5-dimethylbicyclo[3.2.1]octan-8-ylidene]hydroxylamine",-3.0741522071,"CC12CCCC(C)(CC1)C2=NO","CC12CCCC(C)(CC1)C2=NO",36.4067760984537,"CC12CCCC(C)(CC1)C2=NO",2.8069000000000006,32.59,167.131014164,2,1,0,1,2,0,2,12,29,2,2,0,2,2,0,0,0,0,2,2,0.9
"A-1694","N-(4-hydroxyphenyl)acetamide",-1.0333232127,"CC(=O)Nc1ccc(O)cc1","CC(=O)Nc1ccc(O)cc1",13.556594879298755,"CC(=O)Nc1ccc(O)cc1",1.3505999999999998,49.33,151.063328528,3,2,1,2,2,1,3,11,20,0,1,1,0,0,0,0,0,1,0,0,0.125
"A-1700","(2E)-1-(2,6,6-trimethylcyclohex-2-en-1-yl)but-2-en-1-one",-3.1378557654,"CC=CC(=O)C1C(C)=CCCC1(C)C","CC=CC(=O)C1C(C)=CCCC1(C)C",37.08042796104657,"CC=CC(=O)C1C(=CCCC1(C)C)C",3.5141000000000027,17.07,192.15141526,1,0,2,0,1,0,1,14,34,1,1,0,0,1,0,0,0,0,0,1,0.6153846153846154
"A-1701","2-methyl-4-nitroaniline",-3.0361524841,"Cc1cc([N+](=O)[O-])ccc1N","Cc1cc([N+](=O)[O-])ccc1N",25.350635530934237,"Cc1cc([N+](=O)[O-])ccc1N",1.4854199999999997,69.16,152.058577496,4,2,1,1,3,0,4,11,19,0,1,1,0,0,0,0,0,1,0,0,0.14285714285714285
"A-1702","nonan-1-ol",-3.0130118711,"CCCCCCCCCO","CCCCCCCCCO",-0.6559315123252761,"CCCCCCCCCO",2.7293000000000016,20.23,144.15141526,1,1,7,1,1,0,1,10,30,0,0,0,0,0,0,0,0,0,0,0,1
"A-1703","dipropyl cyclohexane-1,2-dicarboxylate",-3.2626917327,"CCCOC(=O)C1CCCCC1C(=O)OCCC","CCCOC(=O)C1CCCCC1C(=O)OCCC",-26.93835453882026,"CCCOC(=O)C1CCCCC1C(=O)OCCC",2.699200000000001,52.60000000000001,256.167459248,4,0,6,0,4,0,4,18,42,2,1,0,1,1,0,0,0,0,1,1,0.8571428571428571
"A-1704","2-(4-aminophenyl)-6-methyl-1,3-benzothiazole-7-sulfonic acid",-4.3324994616,"Cc1ccc2nc(-c3ccc(N)cc3)sc2c1S(=O)(=O)[O-]","Cc1ccc2nc(-c3ccc(N)cc3)sc2c1S(=O)(=O)[O-]",41.19219387255904,"Cc1ccc2nc(c3ccc(N)cc3)sc2c1S(=O)(=O)[O-]",2.75802,96.11,319.02165779190994,5,2,2,1,6,0,7,21,32,0,3,3,0,0,1,0,0,2,0,0,0.07142857142857142
"A-1705","1,4-dioxacycloheptadecane-5,17-dione",-4.2616951793,"O=C1CCCCCCCCCCCC(=O)OCCO1","O=C1CCCCCCCCCCCC(=O)OCCO1",5.025130813974545,"O=C1CCCCCCCCCCCC(=O)OCCO1",3.377500000000002,52.60000000000001,270.183109312,4,0,0,0,4,0,4,19,45,0,1,0,1,1,0,1,1,0,0,0,0.8666666666666667
"A-1708","(3E)-3,7-dimethylocta-1,3,6-triene",-3.9729302572,"C=CC(C)=CCC=C(C)C","C=CC(C)=CCC=C(C)C",10.453458880922362,"C=CC(=CCC=C(C)C)C",3.4750000000000023,0,136.125200512,0,0,3,0,0,0,0,10,26,0,0,0,0,0,0,0,0,0,0,0,0.4
"A-1710","tert-butyl 3,5,5-trimethylhexaneperoxoate",-4.2100961015,"CC(CC(=O)OOC(C)(C)C)CC(C)(C)C","CC(CC(=O)OOC(C)(C)C)CC(C)(C)C",26.03013893604333,"CC(CC(=O)OOC(C)(C)C)CC(C)(C)C",3.722100000000003,35.53,230.188194692,3,0,4,0,3,0,3,16,42,1,0,0,0,0,0,0,0,0,0,0,0.9230769230769231
"A-1712","N~2~-(4,6-diamino-1,3,5-triazin-2-yl)-1,3,5-triazine-2,4,6-triamine",-4.2253369782,"Nc1nc(N)nc(Nc2nc(N)nc(N)n2)n1","Nc1nc(N)nc(Nc2nc(N)nc(N)n2)n1",-255.13901924618492,"Nc1nc(N)nc(Nc2nc(N)nc(N)n2)n1",-1.8710000000000013,193.45,235.10423928799997,11,9,2,5,11,0,11,17,26,0,2,2,0,0,2,0,0,0,0,0,0
"A-1713","butyl 2-({[(2-butoxy-2-oxoethyl)sulfanyl]methyl}sulfanyl)acetate",-4.3430778582,"CCCCOC(=O)CSCSCC(=O)OCCCC","CCCCOC(=O)CSCSCC(=O)OCCCC",8.202181082174839,"CCCCOC(=O)CSCSCC(=O)OCCCC",3.0969000000000015,52.60000000000001,308.111601248,4,0,12,0,6,0,6,19,43,0,0,0,0,0,0,0,0,0,0,0,0.8461538461538461
"A-1714","methyl 1-methyl-4-(propan-2-yl)bicyclo[2.2.2]oct-5-ene-2-carboxylate",-4.2008661255,"COC(=O)C1CC2(C(C)C)C=CC1(C)CC2","COC(=O)C1CC2(C(C)C)C=CC1(C)CC2",16.233731262889233,"COC(=O)C1CC2(C(C)C)C=CC1(C)CC2",3.1780000000000017,26.3,222.161979944,2,0,2,0,2,0,2,16,38,3,3,0,1,3,0,0,0,0,1,3,0.7857142857142857
"A-1716","2-phenylpropane-2-peroxol",-1.0393798776,"CC(C)(OO)c1ccccc1","CC(C)(OO)c1ccccc1",22.436510107832625,"CC(C)(OO)c1ccccc1",2.4113000000000007,29.46,152.083729624,2,1,2,1,2,0,2,11,23,0,1,1,0,0,0,0,0,1,0,0,0.3333333333333333
"A-1718","7-oxabicyclo[4.1.0]heptan-3-ylmethyl 7-oxabicyclo[4.1.0]heptane-3-carboxylate",-1.2604846902,"O=C(OCC1CCC2OC2C1)C1CCC2OC2C1","O=C(OCC1CCC2OC2C1)C1CCC2OC2C1",0.6590186574024213,"O=C(OCC1CCC2OC2C1)C1CCC2OC2C1",1.6645999999999999,51.36,252.13615912,4,0,3,0,4,0,4,18,38,6,4,0,4,4,0,2,2,0,2,2,0.9285714285714286
"A-1723","cyclohexyl 2-methylprop-2-enoate",-3.0885648226,"C=C(C)C(=O)OC1CCCCC1","C=C(C)C(=O)OC1CCCCC1",-7.825476707381522,"C=C(C)C(=O)OC1CCCCC1",2.4384000000000006,26.3,168.115029752,2,0,2,0,2,0,2,12,28,0,1,0,1,1,0,0,0,0,1,1,0.7
"A-1726","2-phenylethyl propanoate",-3.1174443354,"CCC(=O)OCCc1ccccc1","CCC(=O)OCCc1ccccc1",6.349120786274406,"CCC(=O)OCCc1ccccc1",2.1822999999999997,26.3,178.099379688,2,0,4,0,2,0,2,13,27,0,1,1,0,0,0,0,0,1,0,0,0.36363636363636365
"A-1727","benzyl butanoate",-3.1174443354,"CCCC(=O)OCc1ccccc1","CCCC(=O)OCc1ccccc1",-5.262005730540464,"CCCC(=O)OCc1ccccc1",2.5299000000000005,26.3,178.099379688,2,0,4,0,2,0,2,13,27,0,1,1,0,0,0,0,0,1,0,0,0.36363636363636365
"A-1728","2-amino-5-acetamidobenzene-1-sulfonic acid",-1.2318564393,"CC(=O)Nc1ccc(N)c(S(=O)(=O)[O-])c1","CC(=O)Nc1ccc(N)c(S(=O)(=O)[O-])c1",12.042196375261238,"CC(=O)Nc1ccc(N)c(S(=O)(=O)[O-])c1",0.13129999999999986,112.32,229.02885134791,6,3,2,2,5,1,7,15,24,0,1,1,0,0,0,0,0,1,0,0,0.125
"A-1730","(3Z)-hex-3-en-1-yl methyl carbonate",-3.0698306477,"CCC=CCCOC(=O)OC","CCC=CCCOC(=O)OC",-33.83934268710411,"CCC=CCCOC(=O)OC",2.1257,35.53,158.094294308,3,0,4,0,3,0,3,11,25,0,0,0,0,0,0,0,0,0,0,0,0.625
"A-1735","2,4-dimethyl-1-nitrobenzene",-3.0555996074,"Cc1ccc([N+](=O)[O-])c(C)c1","Cc1ccc([N+](=O)[O-])c(C)c1",30.883741278647605,"Cc1ccc([N+](=O)[O-])c(C)c1",2.21164,43.14,151.063328528,3,0,1,0,2,0,3,11,20,0,1,1,0,0,0,0,0,1,0,0,0.25
"A-1736","2-(1,3-benzothiazol-2-ylsulfanyl)acetic acid",-3.2288979848,"O=C([O-])CSc1nc2ccccc2s1","O=C([O-])CSc1nc2ccccc2s1",35.4104615915348,"O=C([O-])CSc1nc2ccccc2s1",1.1382999999999996,53.019999999999996,223.98454401191,3,0,3,0,5,0,5,14,20,0,2,2,0,0,1,0,0,1,0,0,0.1111111111111111
"A-1740","3-(4-tert-butylphenyl)propanal",-3.1588329057,"CC(C)(C)c1ccc(CCC=O)cc1","CC(C)(C)c1ccc(CCC=O)cc1",15.435819780644977,"CC(C)(C)c1ccc(CCC=O)cc1",3.1156000000000024,17.07,190.135765196,1,0,3,0,1,0,1,14,32,0,1,1,0,0,0,0,0,1,0,0,0.46153846153846156
"A-1741","3,5-dinitrobenzoic acid",-2.2076497234,"O=C([O-])c1cc([N+](=O)[O-])cc([N+](=O)[O-])c1","O=C([O-])c1cc([N+](=O)[O-])cc([N+](=O)[O-])c1",26.081805942442195,"O=C([O-])c1cc([N+](=O)[O-])cc([N+](=O)[O-])c1",-0.13350000000000006,126.41,210.99965939591002,8,0,3,0,6,0,8,15,18,0,1,1,0,0,0,0,0,1,0,0,0
"A-1743","N-(2,2,6,6-tetramethylpiperidin-4-yl)-N-{6-[N-(2,2,6,6-tetramethylpiperidin-4-yl)formamido]hexyl}formamide",-1.5399557688,"CC1(C)CC(N(C=O)CCCCCCN(C=O)C2CC(C)(C)[NH2+]C(C)(C)C2)CC(C)(C)[NH2+]1","CC1(C)CC(N(C=O)CCCCCCN(C=O)C2CC(C)(C)[NH2+]C(C)(C)C2)CC(C)(C)[NH2+]1",-33.09573389491913,"CC1(C)CC(N(C=O)CCCCCCN(C=O)C2CC(C)(C)[NH2+]C(C)(C)C2)CC(C)(C)[NH2+]1",2.0296000000000043,73.84,452.40792974418,6,4,11,2,2,2,6,32,84,0,2,0,2,2,0,2,2,0,0,0,0.9230769230769231
"A-1746","2-(heptan-3-yl)-1,3-dioxolane",-3.1195968677,"CCCCC(CC)C1OCCO1","CCCCC(CC)C1OCCO1",9.357616219366442,"CCCCC(CC)C1OCCO1",2.5757000000000003,18.46,172.14632988,2,0,5,0,2,0,2,12,32,1,1,0,1,1,0,1,1,0,0,0,1
"A-1747","2-methyl-2-[(2-methylbutan-2-yl)peroxy]butane",-4.1004353388,"CCC(C)(C)OOC(C)(C)CC","CCC(C)(C)OOC(C)(C)CC",17.2165658931234,"CCC(C)(C)OOC(C)(C)CC",3.3118000000000016,18.46,174.161979944,2,0,5,0,2,0,2,12,34,0,0,0,0,0,0,0,0,0,0,0,1
"A-1748","1-(2,6,6-trimethylcyclohex-1-en-1-yl)pent-1-en-3-one",-4.187455475,"CCC(=O)C=CC1=C(C)CCCC1(C)C","CCC(=O)C=CC1=C(C)CCCC1(C)C",21.679362198881662,"CCC(=O)C=CC1=C(C)CCCC1(C)C",4.048300000000003,17.07,206.167065324,1,0,3,0,1,0,1,15,37,0,1,0,0,1,0,0,0,0,0,1,0.6428571428571429
"A-1749","2,2,4-trimethyl-1-[(2-methylpropanoyl)oxy]pentan-3-yl 2-methylpropanoate",-4.333139569,"CC(C)C(=O)OCC(C)(C)C(OC(=O)C(C)C)C(C)C","CC(C)C(=O)OCC(C)(C)C(OC(=O)C(C)C)C(C)C",-8.062470068698758,"CC(C)C(=O)OCC(C)(C)C(OC(=O)C(C)C)C(C)C",3.4356000000000027,52.6,286.21440944,4,0,7,0,4,0,4,20,50,1,0,0,0,0,0,0,0,0,0,0,0.875
"A-1750","4-(propan-2-yl)cyclohexyl propanoate",-4.1734842136,"CCC(=O)OC1CCC(C(C)C)CC1","CCC(=O)OC1CCC(C(C)C)CC1",4.476035733203281,"CCC(=O)OC1CCC(C(C)C)CC1",3.1544000000000016,26.3,198.161979944,2,0,3,0,2,0,2,14,36,0,1,0,1,1,0,0,0,0,1,1,0.9166666666666666
"A-1753","3,6,9-triethyl-3,6,9-trimethyl-1,2,4,5,7,8-hexaoxonane",-4.3048554438,"CCC1(C)OOC(C)(CC)OOC(C)(CC)OO1","CCC1(C)OOC(C)(CC)OOC(C)(CC)OO1",71.09179342726672,"CCC1(C)OOC(C)(CC)OOC(C)(CC)OO1",3.223200000000002,55.38000000000001,264.157288488,6,0,3,0,6,0,6,18,42,0,1,0,1,1,0,1,1,0,0,0,1
"A-1756","bis-O-(benzylidene)-D-glucitol",-4.4379626594,"O[C@]12COC(c3ccccc3)O[C@@H]1[C@H]1OC(c3ccccc3)OC[C@H]1O2","O[C@]12COC(c3ccccc3)O[C@@H]1[C@H]1OC(c3ccccc3)OC[C@H]1O2",72.48385660910198,"O[C@]12COC(c3ccccc3)O[C@@H]1[C@H]1OC(c3ccccc3)OC[C@H]1O2",2.3022,66.38000000000001,356.12598835999995,6,1,2,1,6,0,6,26,46,6,5,2,3,3,0,3,3,2,0,0,0.4
"A-1759","ethyl 5-oxo-1-phenyl-4,5-dihydro-1H-pyrazole-3-carboxylate",-3.2553454425,"CCOC(=O)C1=NN(c2ccccc2)C(=O)C1","CCOC(=O)C1=NN(c2ccccc2)C(=O)C1",47.478836424297036,"CCOC(=O)C1=NN(c2ccccc2)C(=O)C1",1.3424,58.97,232.084792244,5,0,3,0,4,1,5,17,29,0,2,1,0,1,0,0,1,1,0,0,0.25
"A-1762","oct-7-enal",-1.9972521926,"C=CCCCCCC=O","C=CCCCCCC=O",-0.776838446847437,"C=CCCCCCC=O",2.3218000000000005,17.07,126.104465068,1,0,6,0,1,0,1,9,23,0,0,0,0,0,0,0,0,0,0,0,0.625
"A-1764","diphenylacetic acid",-3.2230398856,"O=C([O-])C(c1ccccc1)c1ccccc1","O=C([O-])C(c1ccccc1)c1ccccc1",75.6344479681466,"O=C([O-])C(c1ccccc1)c1ccccc1",1.5683999999999996,40.129999999999995,211.07645317191,2,0,3,0,2,0,2,16,27,0,2,2,0,0,0,0,0,2,0,0,0.07142857142857142
"A-1772","1-phenylvinyl acetate",-2.1135953878,"C=C(OC(C)=O)c1ccccc1","C=C(OC(C)=O)c1ccccc1",27.074678861439484,"C=C(OC(=O)C)c1ccccc1",2.2203999999999997,26.3,162.06807956,2,0,2,0,2,0,2,12,22,0,1,1,0,0,0,0,0,1,0,0,0.1
"A-1773","ethyl 2-(2,4-dimethyl-1,3-dioxolan-2-yl)acetate",-2.1798872233,"CCOC(=O)CC1(C)OCC(C)O1","CCOC(=O)CC1(C)OCC(C)O1",-13.02860845288223,"CCOC(=O)CC1(C)OCC(C)O1",1.0911,44.760000000000005,188.104858992,4,0,3,0,4,0,4,13,29,2,1,0,1,1,0,1,1,0,0,0,0.8888888888888888
"A-1776","2-(2-methylphenyl)ethanol",-1.042878011,"Cc1ccccc1CCO","Cc1ccccc1CCO",20.263108155722502,"Cc1ccccc1CCO",1.52982,20.23,136.088815004,1,1,2,1,1,0,1,10,22,0,1,1,0,0,0,0,0,1,0,0,0.3333333333333333
"A-1780","6,6-dimethyl-2-methylidenebicyclo[3.1.1]heptan-3-ol",-2.09612479,"C=C1C(O)CC2CC1C2(C)C","C=C1C(O)CC2CC1C2(C)C",15.713101743900776,"C=C1C(O)CC2CC1C2(C)C",1.9695,20.23,152.120115132,1,1,0,1,1,0,1,11,27,3,3,0,3,3,0,0,0,0,3,3,0.8
"A-1781","4-(propan-2-yl)cyclohexan-1-ol",-2.0680942751,"CC(C)C1CCC(O)CC1","CC(C)C1CCC(O)CC1",11.240391955909883,"CC(C)C1CCC(O)CC1",2.1935000000000002,20.23,142.135765196,1,1,1,1,1,0,1,10,28,0,1,0,1,1,0,0,0,0,1,1,1
"A-1787","Glycerol, propoxylated, esters with acrylic acid",-2.5527472821,"C=CC(=O)OCCCOCC(COCCCOC(=O)C=C)OCCCOC(=O)C=C","C=CC(=O)OCCCOCC(COCCCOC(=O)C=C)OCCCOC(=O)C=C",-5.004352124882312,"C=CC(=O)OCCCOCC(COCCCOC(=O)C=C)OCCCOC(=O)C=C",1.7627,106.59,428.2046326039999,9,0,20,0,9,0,9,30,62,0,0,0,0,0,0,0,0,0,0,0,0.5714285714285714
"A-1789","N-{4-[(2-hydroxyethyl)sulfonyl]phenyl}acetamide",-2.3069323017,"CC(=O)Nc1ccc(S(=O)(=O)CCO)cc1","CC(=O)Nc1ccc(S(=O)(=O)CCO)cc1",-10.770503060281634,"CC(=O)Nc1ccc(S(=O)(=O)CCO)cc1",0.4109999999999998,83.47,243.056528896,5,2,4,2,4,1,6,16,29,0,1,1,0,0,0,0,0,1,0,0,0.3
"A-1791","propiophenone",-2.0485000681,"CCC(=O)c1ccccc1","CCC(=O)c1ccccc1",19.928107499128124,"CCC(=O)c1ccccc1",2.2793,17.07,134.07316494,1,0,2,0,1,0,1,10,20,0,1,1,0,0,0,0,0,1,0,0,0.2222222222222222