"ID","Name","Solubility","SMILES Canonical","Smiles (Optimized Geometry)","Energy","Smiles","SlogP","TPSA","ExactMW","NumLipinskiHBA","NumLipinskiHBD","NumRotatableBonds","NumHBD","NumHBA","NumAmideBonds","NumHeteroAtoms","NumHeavyAtoms","NumAtoms","NumStereocenters","NumRings","NumAromaticRings","NumSaturatedRings","NumAliphaticRings","NumAromaticHeterocycles","NumSaturatedHeterocycles","NumAliphaticHeterocycles","NumAromaticCarbocycles","NumSaturatedCarbocycles","NumAliphaticCarbocycles","FractionCSP3"
"B-2758","2(1h)-pyrimidinone, 4-amino-5-ethyl-",-1.0197,"CCc1c[nH]c(=O)nc1N","CCC1=CNC(=O)N=C1N",-28.36013056200812,"CCc1c[nH]c(=O)nc1N",0.3607000000000002,67.48,139.074561908,4,3,1,2,2,2,4,10,19,0,1,0,0,1,0,0,1,0,0,0,0.3333333333333333
"B-2761","1,2-dithiane-3,6-dicarboxylic acid, trans-",-1.5241,"O=C([O-])[C@H]1CC[C@H](C(=O)[O-])SS1","O=C([O-])[C@H]1CC[C@H](C(=O)[O-])SS1",119.68373942751488,"O=C([O-])[C@H]1CC[C@H](C(=O)[O-])SS1",-1.6014,80.25999999999999,205.97184783182,4,0,2,0,6,0,6,12,18,2,1,0,1,1,0,1,1,0,0,0,0.6666666666666666
"B-2765","amitraz",-5.4675,"Cc1ccc([NH+]=CN(C)C=[NH+]c2ccc(C)cc2C)c(C)c1","Cc1ccc([NH+]=CN(C)C=[NH+]c2ccc(C)cc2C)c(C)c1",73.3321683954954,"Cc1ccc([NH+]=CN(C)C=[NH+]c2ccc(C)cc2C)c(C)c1",1.0330800000000004,31.18,295.20375064018003,3,2,4,2,0,0,3,22,47,0,2,2,0,0,0,0,0,2,0,0,0.2631578947368421
"B-2767","2-ethylacetanilide",-1.5906,"CCc1ccccc1NC(C)=O","CCc1ccccc1NC(C)=O",16.006163836141408,"CCc1ccccc1NC(=O)C",2.2074,29.1,163.099714036,2,1,2,1,1,1,2,12,25,0,1,1,0,0,0,0,0,1,0,0,0.3
"B-2773","butralin",-5.4703,"CCC(C)Nc1c([N+](=O)[O-])cc(C(C)(C)C)cc1[N+](=O)[O-]","CCC(C)Nc1c([N+](=O)[O-])cc(C(C)(C)C)cc1[N+](=O)[O-]",71.1624659909083,"CCC(C)Nc1c([N+](=O)[O-])cc(C(C)(C)C)cc1[N+](=O)[O-]",4.010900000000003,98.31,295.153206152,7,1,5,1,5,0,7,21,42,1,1,1,0,0,0,0,0,1,0,0,0.5714285714285714
"B-2774","ethanone, 1-(3,4,5-trihydroxyphenyl)-",-1.4711,"CC(=O)c1cc(O)c(O)c(O)c1","CC(=O)c1cc(O)c(O)c(O)c1",19.088933631519165,"CC(=O)c1cc(O)c(O)c(O)c1",1.0059999999999998,77.76,168.042258736,4,3,1,3,4,0,4,12,20,0,1,1,0,0,0,0,0,1,0,0,0.125
"B-2775","isopropalin",-6.4491,"CCCN(CCC)c1c([N+](=O)[O-])cc(C(C)C)cc1[N+](=O)[O-]","CCCN(CCC)c1c([N+](=O)[O-])cc(C(C)C)cc1[N+](=O)[O-]",96.79404056553818,"CCCN(CCC)c1c([N+](=O)[O-])cc(C(C)C)cc1[N+](=O)[O-]",4.252800000000004,89.52,309.168856216,7,0,8,0,5,0,7,22,45,0,1,1,0,0,0,0,0,1,0,0,0.6
"B-2776","phosphorohydrazidic acid, diphenyl ester",-2.2373,"NNP(=O)(Oc1ccccc1)Oc1ccccc1","NNP(=O)(Oc1ccccc1)Oc1ccccc1",20.586293460763443,"NNP(=O)(Oc1ccccc1)Oc1ccccc1",2.7158000000000007,73.58,264.066378906,5,3,5,2,4,0,6,18,31,0,2,2,0,0,0,0,0,2,0,0,0
"B-2778","methyl phenylsulfonyl acetate",-1.1406,"COC(=O)CS(=O)(=O)c1ccccc1","COC(=O)CS(=O)(=O)c1ccccc1",-36.52397569302401,"COC(=O)CS(=O)(=O)c1ccccc1",0.6333000000000001,60.440000000000005,214.0299798,4,0,3,0,4,0,5,14,24,0,1,1,0,0,0,0,0,1,0,0,0.2222222222222222
"B-2779","l-alanine, n-[(ethylthio)thioxomethyl]-",-0.9613,"CCSC(=S)N[C@@H](C)C(=O)[O-]","CCSC(=S)N[C@@H](C)C(=O)[O-]",20.120409498610545,"CCSC(=S)N[C@@H](C)C(=O)[O-]",-0.24760000000000004,52.16,192.01584413991,3,1,3,1,4,0,5,11,21,1,0,0,0,0,0,0,0,0,0,0,0.6666666666666666
"B-2781","1,1-bis(p-meo-ph)-2-nitropropane",-4.5446,"COc1ccc(C(c2ccc(OC)cc2)C(C)[N+](=O)[O-])cc1","COc1ccc(C(c2ccc(OC)cc2)C(C)[N+](=O)[O-])cc1",36.29734396176187,"COc1ccc(C(c2ccc(OC)cc2)C(C)[N+](=O)[O-])cc1",3.5009000000000023,61.599999999999994,301.131408088,5,0,6,0,4,0,5,22,41,1,2,2,0,0,0,0,0,2,0,0,0.29411764705882354
"B-2783","cumylphenyl diphenyl phosphate",-6.8485,"CC(C)c1cc(OP(=O)(Oc2ccccc2)Oc2ccccc2)cc(-c2ccccc2)c1","CC(C)c1cc(OP(=O)(Oc2ccccc2)Oc2ccccc2)cc(-c2ccccc2)c1",52.75935524945681,"CC(C)c1cc(OP(=O)(Oc2ccccc2)Oc2ccccc2)cc(c2ccccc2)c1",8.121900000000007,44.760000000000005,444.14904591000004,4,0,8,0,4,0,5,32,57,0,4,4,0,0,0,0,0,4,0,0,0.1111111111111111
"B-2786","dipropylene glycol methyl ether",0.8292,"COC(C)COC(C)CO","COC(C)COC(C)CO",40.83133470565601,"COC(C)COC(C)CO",0.4186999999999999,38.69,148.109944372,3,1,5,1,3,0,3,10,26,2,0,0,0,0,0,0,0,0,0,0,1
"B-2789","butocarboxim",-0.7353,"CNC(=O)ON=C(C)C(C)SC","CNC(=O)ON=C(C)C(C)SC",35.04574773151805,"CNC(=O)ON=C(C)C(C)SC",1.4698,50.69,190.077598688,4,1,3,1,4,1,5,12,26,1,0,0,0,0,0,0,0,0,0,0,0.7142857142857143
"B-2790","butoxycarboxim",-0.0267,"CNC(=O)ON=C(C)C(C)S(C)(=O)=O","CNC(=O)ON=C(C)C(C)S(C)(=O)=O",1.606903499391112,"CNC(=O)ON=C(C)C(C)S(=O)(=O)C",0.15139999999999998,84.82999999999998,222.067427928,6,1,3,1,5,1,7,14,28,1,0,0,0,0,0,0,0,0,0,0,0.7142857142857143
"B-2792","acetic acid, 2,2',2''-[methylidynetris(thio)]tri",-1.4243,"O=C([O-])CSC(SCC(=O)[O-])SCC(=O)[O-]","O=C([O-])CSC(SCC(=O)[O-])SCC(=O)[O-]",209.384127399774,"O=C([O-])CSC(SCC(=O)[O-])SCC(=O)[O-]",-3.2806999999999986,120.38999999999999,282.94212168373,6,0,9,0,9,0,9,16,23,0,0,0,0,0,0,0,0,0,0,0,0.5714285714285714
"B-2796","tebutam",-2.4704,"CC(C)N(Cc1ccccc1)C(=O)C(C)(C)C","CC(C)N(Cc1ccccc1)C(=O)C(C)(C)C",-0.9637955262903319,"CC(C)N(Cc1ccccc1)C(=O)C(C)(C)C",3.4697000000000022,20.310000000000002,233.177964356,2,0,3,0,1,1,2,17,40,0,1,1,0,0,0,0,0,1,0,0,0.5333333333333333
"B-2797","butanoic acid, 4-(benzoylamino)-",-1.2025,"O=C([O-])CCCNC(=O)c1ccccc1","O=C([O-])CCCNC(=O)c1ccccc1",1.3886834630082112,"O=C([O-])CCCNC(=O)c1ccccc1",-0.0535000000000001,69.22999999999999,206.08226682391,4,1,5,1,3,1,4,15,27,0,1,1,0,0,0,0,0,1,0,0,0.2727272727272727
"B-2800","sulprofos",-6.0171,"CCCSP(=S)(OCC)Oc1ccc(SC)cc1","CCCSP(=S)(OCC)Oc1ccc(SC)cc1",-31.252428668767696,"CCCSP(=S)(OCC)Oc1ccc(SC)cc1",5.191500000000004,18.46,322.02847947800007,2,0,8,0,5,0,6,18,37,1,1,1,0,0,0,0,0,1,0,0,0.5
"B-2803","bilanafos",0.4904,"C[C@H](NC(=O)[C@H](C)NC(=O)[C@@H]([NH3+])CCP(C)(=O)[O-])C(=O)[O-]","C[C@H](NC(=O)[C@H](C)NC(=O)[C@@H]([NH3+])CCP(C)(=O)[O-])C(=O)[O-]",-110.42245044886542,"C[C@H](NC(=O)[C@H](C)NC(=O)[C@@H]([NH3+])CCP(=O)(C)[O-])C(=O)[O-]",-3.9854999999999965,166.1,322.11734560190996,9,5,8,3,6,2,10,21,42,4,0,0,0,0,0,0,0,0,0,0,0.7272727272727273
"B-2806","piroxicam",-4.1586,"CN1C(=C([O-])Nc2ccccn2)C(=O)c2ccccc2S1(=O)=O","CN1C(=C([O-])Nc2ccccn2)C(=O)c2ccccc2S1(=O)=O",24.062966204386868,"CN1C(=C([O-])Nc2ccccn2)C(=O)c2ccccc2S1(=O)=O",0.5398999999999996,102.42999999999998,330.05540044390995,7,1,2,1,6,0,8,23,35,0,3,2,0,1,1,0,1,1,0,0,0.06666666666666667
"B-2807","fenbufen",-5.0609,"O=C([O-])CCC(=O)c1ccc(-c2ccccc2)cc1","O=C([O-])CCC(=O)c1ccc(-c2ccccc2)cc1",29.94611569787008,"O=C([O-])CCC(=O)c1ccc(c2ccccc2)cc1",2.0664,57.199999999999996,253.08701785591,3,0,5,0,3,0,3,19,32,0,2,2,0,0,0,0,0,2,0,0,0.125
"B-2813","isothioate",-3.4288,"COP(=S)(OC)SCCSC(C)C","COP(=S)(OC)SCCSC(C)C",-73.40352484562976,"COP(=S)(OC)SCCSC(C)C",3.3785000000000016,18.46,260.012829414,2,0,7,0,5,0,6,13,30,0,0,0,0,0,0,0,0,0,0,0,1
"B-2814","9-octadecenoic acid, 12-(sulfooxy)-",-0.5781,"CCCCCCC(CC=CCCCCCCCC(=O)[O-])OS(=O)(=O)[O-]","CCCCCCC(CC=CCCCCCCCC(=O)[O-])OS(=O)(=O)[O-]",-17.407873743315406,"CCCCCCC(CC=CCCCCCCCC(=O)[O-])OS(=O)(=O)[O-]",3.2291000000000007,106.56,376.19305690381987,6,0,17,0,6,0,7,25,57,1,0,0,0,0,0,0,0,0,0,0,0.8333333333333334
"B-2815","1-hexadecanol",-6.7697,"CCCCCCCCCCCCCCCCO","CCCCCCCCCCCCCCCCO",-1.3661649939870237,"CCCCCCCCCCCCCCCCO",5.460000000000006,20.23,242.26096570800001,1,1,14,1,1,0,1,17,51,0,0,0,0,0,0,0,0,0,0,0,1
"B-2817","tiocarbazil",-5.0484,"CCC(C)N(C(=O)SCc1ccccc1)C(C)CC","CCC(C)N(C(=O)SCc1ccccc1)C(C)CC",-27.92981292481687,"CCC(C)N(C(=O)SCc1ccccc1)C(C)CC",4.938800000000004,20.310000000000002,279.16568542,2,0,6,0,2,1,3,19,44,2,1,1,0,0,0,0,0,1,0,0,0.5625
"B-2820","labetalol",-3.4482,"CC(CCc1ccccc1)[NH2+]CC(O)c1ccc(O)c(C(N)=O)c1","CC(CCc1ccccc1)[NH2+]CC(O)c1ccc(O)c(C(N)=O)c1",37.549660155628004,"CC(CCc1ccccc1)[NH2+]CC(O)c1ccc(O)c(C(=O)N)c1",1.1092,100.16,329.18596908009,5,6,8,4,3,1,5,24,49,2,2,2,0,0,0,0,0,2,0,0,0.3157894736842105
"B-2821","benzoic acid, 4-amino-, nonyl ester",-6,"CCCCCCCCCOC(=O)c1ccc(N)cc1","CCCCCCCCCOC(=O)c1ccc(N)cc1",7.880759928720063,"CCCCCCCCCOC(=O)c1ccc(N)cc1",4.176200000000003,52.32,263.18852904,3,2,9,1,3,0,3,19,44,0,1,1,0,0,0,0,0,1,0,0,0.5625
"B-2823","metoprolol",-1.1992,"COCCc1ccc(OCC(O)C[NH2+]C(C)C)cc1","COCCc1ccc(OCC(O)C[NH2+]C(C)C)cc1",21.49040258992696,"COCCc1ccc(OCC(O)C[NH2+]C(C)C)cc1",0.5870000000000002,55.3,268.19072011209,4,3,9,2,3,0,4,19,45,1,1,1,0,0,0,0,0,1,0,0,0.6
"B-2826","dl-phenylalanine, n-(aminocarbonyl)-",-2.0958,"NC(=O)N[C@@H](Cc1ccccc1)C(=O)[O-]","NC(=O)N[C@@H](Cc1ccccc1)C(=O)[O-]",33.223922720273784,"NC(=O)N[C@@H](Cc1ccccc1)C(=O)[O-]",-0.9841000000000006,95.25,207.07751579191,5,3,4,2,3,2,5,15,26,1,1,1,0,0,0,0,0,1,0,0,0.2
"B-2827","pyrido[3,2-d]pyrimidin-4(1h)-one",-2.0656,"O=c1nc[nH]c2cccnc12","O=C1N=CNc2cccnc21",47.485008047400726,"O=c1nc[nH]c2cccnc12",0.6755999999999999,54.35,147.04326178,4,1,0,1,3,1,4,11,16,0,2,1,0,1,1,0,1,0,0,0,0
"B-2834","perfluidone",-3.8009,"Cc1cc(S(=O)(=O)c2ccccc2)ccc1NS(=O)(=O)C(F)(F)F","Cc1cc(S(=O)(=O)c2ccccc2)ccc1NS(=O)(=O)C(F)(F)F",141.603523964025,"Cc1cc(S(=O)(=O)c2ccccc2)ccc1NS(=O)(=O)C(F)(F)F",3.0893200000000007,80.31,379.0159845239999,5,1,4,1,4,0,10,24,36,0,2,2,0,0,0,0,0,2,0,0,0.14285714285714285
"B-2835","5-pyrimidinecarboxylic aicd, 1,2,3,4-tetrahydro-",-2.0985,"CCOC(=O)c1c[nH]c(=S)[nH]c1=O","CCOC(=O)C1=CNC(=S)NC1=O",-48.38453683332955,"CCOC(=O)c1c[nH]c(=S)[nH]c1=O",-0.5623000000000002,67.43,200.025563116,5,2,2,2,4,1,6,13,21,0,1,0,0,1,0,0,1,0,0,0,0.2857142857142857
"B-2836","d-glutamine, n2-l-leucyl-",-1.5687,"CC(C)C[C@H]([NH3+])C(=O)N[C@H](CCC(N)=O)C(=O)[O-]","CC(C)C[C@H]([NH3+])C(=O)N[C@H](CCC(N)=O)C(=O)[O-]",-63.392093429613205,"CC(C)C[C@H]([NH3+])C(=O)N[C@H](CCC(=O)N)C(=O)[O-]",-2.856799999999997,139.96,259.153206152,7,6,8,3,4,2,7,18,39,2,0,0,0,0,0,0,0,0,0,0,0.7272727272727273
"B-2837","biocozamycin",-0.1971,"C=C1CCO[C@]2(C(O)C(C)(O)CO)NC(=O)[C@@]1(O)NC2=O","C=C1CCO[C@]2(C(O)C(C)(O)CO)NC(=O)[C@@]1(O)NC2=O",105.34227347382107,"C=C1CCO[C@]2(C(O)C(C)(O)CO)NC(=O)[C@@]1(O)NC2=O",-3.301999999999998,148.35,302.111400916,9,6,3,6,7,2,9,21,39,4,3,0,3,3,0,3,3,0,0,0,0.6666666666666666
"B-2839","etrimfos",-3.8638,"CCOc1cc(OP(=S)(OC)OC)nc(CC)n1","CCOc1cc(OP(=S)(OC)OC)nc(CC)n1",-104.87216408992933,"CCOc1cc(OP(=S)(OC)OC)nc(CC)n1",2.3338,62.7,292.06466465400007,6,0,7,0,7,0,8,18,35,0,1,1,0,0,1,0,0,0,0,0,0.6
"B-2840","minoxidil",-1.9782,"N=c1nc(N2CCCCC2)cc(N)n1O","N=C1N=C(N2CCCCC2)C=C(N)N1O",-36.02945083771938,"N=c1nc(N2CCCCC2)cc(N)n1O",0.31046999999999997,88.94,209.12766009999999,6,4,0,3,4,0,6,15,30,0,2,0,1,2,0,1,2,0,0,0,0.5555555555555556
"B-2841","penbutolol",-1.6195,"CC(C)(C)[NH2+]C[C@@H](O)COc1ccccc1C1CCCC1","CC(C)(C)[NH2+]C[C@@H](O)COc1ccccc1C1CCCC1",27.80593621563621,"CC(C)(C)[NH2+]C[C@@H](O)COc1ccccc1C1CCCC1",2.445800000000001,46.07000000000001,292.22710562008996,3,3,6,2,2,0,3,21,51,1,2,1,1,1,0,0,0,1,1,1,0.6666666666666666
"B-2847","8-quinolinol, 2-methyl-5-nitro-",-3.9598,"Cc1ccc2c([N+](=O)[O-])ccc([O-])c2n1","Cc1ccc2c([N+](=O)[O-])ccc([O-])c2n1",56.05497824569363,"Cc1ccc2c([N+](=O)[O-])ccc([O-])c2n1",1.5250199999999998,79.09,203.04621566391,5,0,1,0,4,0,5,15,22,0,2,2,0,0,1,0,0,1,0,0,0.1
"B-2848","ethane, 1,1-bis(methylsulfonyl)-",-1.4188,"CC(S(C)(=O)=O)S(C)(=O)=O","CC(S(C)(=O)=O)S(C)(=O)=O",-52.851214528879034,"CC(S(=O)(=O)C)S(=O)(=O)C",-0.5783999999999998,68.28,186.0020508,4,0,2,0,4,0,6,10,20,0,0,0,0,0,0,0,0,0,0,0,1
"B-2849","alanine, n-(aminocarbonyl)-2-methyl-",-1.1648,"CC(C)(NC(N)=O)C(=O)[O-]","CC(C)(NC(N)=O)C(=O)[O-]",31.100206902531205,"CC(C)(NC(=O)N)C(=O)[O-]",-1.8167999999999989,95.25,145.06186572791,5,3,2,2,3,2,5,10,19,0,0,0,0,0,0,0,0,0,0,0,0.6
"B-2850","2-propenoic acid, 3-(2-ethoxyphenyl)-, (z)-",-2.5234,"CCOc1ccccc1C=CC(=O)[O-]","CCOc1ccccc1C=CC(=O)[O-]",35.2506178332138,"CCOc1ccccc1C=CC(=O)[O-]",0.8483999999999998,49.36,191.07136779191,3,0,4,0,3,0,3,14,25,0,1,1,0,0,0,0,0,1,0,0,0.18181818181818182
"B-2854","propane-2-thiosulfinic acid s-isopropyl ester",-0.823,"CC(C)SS(=O)C(C)C","CC(C)SS(=O)C(C)C",-0.013638332776506612,"CC(C)SS(=O)C(C)C",2.2001,17.07,166.048607068,1,0,3,0,2,0,3,9,23,1,0,0,0,0,0,0,0,0,0,0,1
"B-2855","2,4-pentanediol, 2-methyl-4-(1-naphthalenyl)-",-3.2419,"CC(C)(O)CC(C)(O)c1cccc2ccccc12","CC(C)(O)CC(C)(O)c1cccc2ccccc12",35.03397891969391,"CC(C)(O)CC(C)(O)c1cccc2ccccc12",3.208300000000002,40.46,244.14632988,2,2,3,2,2,0,2,18,38,1,2,2,0,0,0,0,0,2,0,0,0.375
"B-2859","thiofanox",-1.6231,"CNC(=O)ON=C(CSC)C(C)(C)C","CNC(=O)ON=C(CSC)C(C)(C)C",40.90894955835189,"CNC(=O)ON=C(CSC)C(C)(C)C",2.1075,50.69,218.108898816,4,1,3,1,4,1,5,14,32,0,0,0,0,0,0,0,0,0,0,0,0.7777777777777778
"B-2860","dinocap",-4.9595,"CC=CC(=O)Oc1c([N+](=O)[O-])cc([N+](=O)[O-])cc1C(C)(C)CC(C)(C)C","CC=CC(=O)Oc1c([N+](=O)[O-])cc([N+](=O)[O-])cc1C(C)(C)CC(C)(C)C",69.47939101651909,"CC=CC(=O)Oc1c([N+](=O)[O-])cc([N+](=O)[O-])cc1C(C)(C)CC(C)(C)C",4.698300000000004,112.58000000000001,364.163436488,8,0,6,0,6,0,8,26,50,0,1,1,0,0,0,0,0,1,0,0,0.5
"B-2862","cyphenothrin",-7.5746,"CC(C)=CC1C(C(=O)OC(C#N)c2cccc(Oc3ccccc3)c2)C1(C)C","CC(C)=CC1C(C(=O)OC(C#N)c2cccc(Oc3ccccc3)c2)C1(C)C",41.29573285492193,"CC(=CC1C(C(=O)OC(C#N)c2cccc(Oc3ccccc3)c2)C1(C)C)C",5.825180000000005,59.32000000000001,375.18344366,4,0,6,0,4,0,4,28,53,3,3,2,1,1,0,0,0,2,1,1,0.3333333333333333
"B-2863","fenpropathrin",-6.0248,"CC1(C)C(C(=O)OC(C#N)c2cccc(Oc3ccccc3)c2)C1(C)C","CC1(C)C(C(=O)OC(C#N)c2cccc(Oc3ccccc3)c2)C1(C)C",54.58222772150759,"CC1(C)C(C(=O)OC(C#N)c2cccc(Oc3ccccc3)c2)C1(C)C",5.268980000000004,59.32000000000001,349.167793596,4,0,5,0,4,0,4,26,49,1,3,2,1,1,0,0,0,2,1,1,0.36363636363636365
"B-2864","hexanoic acid, 4-ethyl-5-oxo-",-0.451,"CCC(CCC(=O)[O-])C(C)=O","CCC(CCC(=O)[O-])C(C)=O",1.82693780198926,"CCC(CCC(=O)[O-])C(=O)C",0.1316999999999997,57.199999999999996,157.08701785591,3,0,5,0,3,0,3,11,24,1,0,0,0,0,0,0,0,0,0,0,0.75
"B-2865","acetamide, 2-cyano-n-methyl-n- (methylamino)carb",0.1709,"CNC(=O)N(C)C(=O)CC#N","CNC(=O)N(C)C(=O)CC#N",-69.69018577743701,"CNC(=O)N(C)C(=O)CC#N",-0.30212000000000017,73.2,155.069476528,5,1,1,1,3,3,5,11,20,0,0,0,0,0,0,0,0,0,0,0,0.5
"B-2867","acetamide, 2-(acetylamino)-n-phenyl-",-1.5678,"CC(=O)NCC(=O)Nc1ccccc1","CC(=O)NCC(=O)Nc1ccccc1",14.419195727044716,"CC(=O)NCC(=O)Nc1ccccc1",0.7611999999999997,58.2,192.089877624,4,2,3,2,2,2,4,14,26,0,1,1,0,0,0,0,0,1,0,0,0.2
"B-2869","1h-purine-2,6-dione, 1-ethyl-3,7-dihydro-3,7-dim",-0.719,"CCn1c(=O)c2c(ncn2C)n(C)c1=O","CCN1C(=O)c2c(ncn2C)N(C)C1=O",-131.5987306020465,"CCn1c(=O)c2c(ncn2C)n(C)c1=O",0.45199999999999996,58.440000000000005,208.096025624,6,0,1,0,4,3,6,15,27,0,2,1,0,1,1,0,1,0,0,0,0.4444444444444444
"B-2870","ethyl 2-formamido-(phenylvinyl)acrylate",-3.3483,"CCOC(=O)C(=CC=Cc1ccccc1)NC=O","CCOC(=O)C(=CC=Cc1ccccc1)NC=O",17.202752661841895,"CCOC(=O)C(=CC=Cc1ccccc1)NC=O",1.8927999999999998,55.4,245.10519334,4,1,6,1,3,1,4,18,33,0,1,1,0,0,0,0,0,1,0,0,0.14285714285714285
"B-2875","pendimethalin",-5.9721,"CCC(CC)Nc1c([N+](=O)[O-])cc(C)c(C)c1[N+](=O)[O-]","CCC(CC)Nc1c([N+](=O)[O-])cc(C)c(C)c1[N+](=O)[O-]",78.2239350198575,"CCC(CC)Nc1c([N+](=O)[O-])cc(C)c(C)c1[N+](=O)[O-]",3.720340000000003,98.31,281.137556088,7,1,6,1,5,0,7,20,39,0,1,1,0,0,0,0,0,1,0,0,0.5384615384615384
"B-2876","methoprene",-5.3459,"COC(C)(C)CCCC(C)CC=CC(C)=CC(=O)OC(C)C","COC(C)(C)CCCC(C)CC=CC(C)=CC(=O)OC(C)C",13.177719262548354,"COC(C)(C)CCCC(C)CC=CC(=CC(=O)OC(C)C)C",5.062000000000006,35.53,310.25079494799996,3,0,10,0,3,0,3,22,56,1,0,0,0,0,0,0,0,0,0,0,0.7368421052631579
"B-2877","2-pteridinamine, n,n-dimethyl-",0.3586,"CN(C)c1ncc2nccnc2n1","CN(C)c1ncc2nccnc2n1",-10.372389808144252,"CN(C)c1ncc2nccnc2n1",0.4857999999999998,54.800000000000004,175.08579528799999,5,0,1,0,5,0,5,13,22,0,2,2,0,0,2,0,0,0,0,0,0.25
"B-2881","4-methoxy-3,3'-dimethylbenzophenone",-5.0797,"COc1ccc(C(=O)c2cccc(C)c2)cc1C","COc1ccc(C(=O)c2cccc(C)c2)cc1C",47.72550637056916,"COc1ccc(C(=O)c2cccc(C)c2)cc1C",3.543040000000002,26.3,240.115029752,2,0,3,0,2,0,2,18,34,0,2,2,0,0,0,0,0,2,0,0,0.1875
"B-2883","metamitron",-2.0506,"Cc1nnc(-c2ccccc2)c(=O)n1N","CC1=NN=C(c2ccccc2)C(=O)N1N",56.754936905085906,"Cc1nnc(c2ccccc2)c(=O)n1N",0.5250000000000002,71.05,202.08546094,5,2,1,1,4,1,5,15,25,0,2,1,0,1,0,0,1,1,0,0,0.1
"B-2887","bupirimate",-4.1579,"CCCCc1c(C)nc(NCC)nc1OS(=O)(=O)N(C)C","CCCCc1c(C)nc(NCC)nc1OS(=O)(=O)N(C)C",-156.8299300726345,"CCCCc1c(C)nc(NCC)nc1OS(=O)(=O)N(C)C",1.74462,84.42,316.156911628,7,1,8,1,6,0,8,21,45,0,1,1,0,0,1,0,0,0,0,0,0.6923076923076923
"B-2888","acetamide, n-(4-ethoxy-2-methylphenyl)-",-1.839,"CCOc1ccc(NC(C)=O)c(C)c1","CCOc1ccc(NC(C)=O)c(C)c1",21.53031263995807,"CCOc1ccc(NC(=O)C)c(C)c1",2.35212,38.33,193.11027872,3,1,3,1,2,1,3,14,29,0,1,1,0,0,0,0,0,1,0,0,0.36363636363636365
"B-2889","tricyclazole",-2.0729,"Cc1cccc2sc3nncn3c12","Cc1cccc2c1-n1cnnc1S2",35.87530764273312,"Cc1cccc2c1n1cnnc1s2",2.0403199999999995,30.71,189.036068224,3,0,0,0,4,0,4,13,20,0,3,2,0,1,1,0,1,1,0,0,0.1111111111111111
"B-2890","benzaldehyde, 4-hydroxy-5-methoxy-2-methyl-",-2.7435,"COc1cc(C=O)c(C)cc1O","COc1cc(C=O)c(C)cc1O",31.714598185198014,"COc1cc(C=O)c(C)cc1O",1.5217199999999997,46.53,166.06299418,3,1,2,1,3,0,3,12,22,0,1,1,0,0,0,0,0,1,0,0,0.2222222222222222
"B-2891","nadolol",-1.5699,"CC(C)(C)[NH2+]CC(O)COc1cccc2c1C[C@H](O)[C@H](O)C2","CC(C)(C)[NH2+]CC(O)COc1cccc2c1C[C@H](O)[C@H](O)C2",38.21244190801511,"CC(C)(C)[NH2+]CC(O)COc1cccc2c1C[C@H](O)[C@H](O)C2",-0.39139999999999786,86.53000000000002,310.20128479608996,5,5,5,4,4,0,5,22,50,3,2,1,0,1,0,0,0,1,0,1,0.6470588235294118
"B-2895","kinoprene",-4.7239,"C#CCOC(=O)C=C(C)C=CCC(C)CCCC(C)C","C#CCOC(=O)C=C(C)C=CCC(C)CCCC(C)C",-3.704813039305693,"C#CCOC(=O)C=C(C)C=CCC(C)CCCC(C)C",4.517800000000004,26.3,276.208930136,2,0,9,0,2,0,2,20,48,1,0,0,0,0,0,0,0,0,0,0,0.6111111111111112
"B-2896","daimuron",-5.3495,"Cc1ccc(NC(=O)NC(C)(C)c2ccccc2)cc1","Cc1ccc(NC(=O)NC(C)(C)c2ccccc2)cc1",10.358382985006555,"Cc1ccc(NC(=O)NC(C)(C)c2ccccc2)cc1",4.051820000000003,41.13,268.15756326,3,2,3,2,1,2,3,20,40,0,2,2,0,0,0,0,0,2,0,0,0.23529411764705882
"B-2897","methyldymron",-3.3495,"CN(C(=O)NC(C)(C)c1ccccc1)c1ccccc1","CN(C(=O)NC(C)(C)c1ccccc1)c1ccccc1",-1.4029503119089377,"CN(C(=O)NC(C)(C)c1ccccc1)c1ccccc1",3.767700000000003,32.34,268.15756326,3,1,3,1,1,2,3,20,40,0,2,2,0,0,0,0,0,2,0,0,0.23529411764705882
"B-2900","2-propanol, 1,3-dipropoxy-",-0.3431,"CCCOCC(O)COCCC","CCCOCC(O)COCCC",24.378559637809914,"CCCOCC(O)COCCC",1.2005,38.69,176.1412445,3,1,8,1,3,0,3,12,32,0,0,0,0,0,0,0,0,0,0,0,1
"B-2902","propanamide, 2-oxo-n-phenyl-",-1.3676,"CC(=O)C(=O)Nc1ccccc1","CC(=O)C(=O)Nc1ccccc1",44.61994346108693,"CC(=O)C(=O)Nc1ccccc1",1.2141,46.17,163.063328528,3,1,2,1,2,1,3,12,21,0,1,1,0,0,0,0,0,1,0,0,0.1111111111111111
"B-2903","valeric acid, 5-(benzenesulfonyl-methyl-amino)-",-1.5585,"CN(CCCCC(=O)[O-])S(=O)(=O)c1ccccc1","CN(CCCCC(=O)[O-])S(=O)(=O)c1ccccc1",-58.968019690548836,"CN(CCCCC(=O)[O-])S(=O)(=O)c1ccccc1",0.22730000000000006,77.51,270.08055257191,5,0,7,0,4,0,6,18,34,0,1,1,0,0,0,0,0,1,0,0,0.4166666666666667
"B-2904","3-pyridinecarboxylic acid, pentyl ester",-2.3776,"CCCCCOC(=O)c1cccnc1","CCCCCOC(=O)c1cccnc1",4.489268881485321,"CCCCCOC(=O)c1cccnc1",2.4286000000000003,39.19,193.11027872,3,0,5,0,3,0,3,14,29,0,1,1,0,0,1,0,0,0,0,0,0.45454545454545453
"B-2905","phenol, 4-(2-aminoethyl)-2-nitro-",-1.3399,"[NH3+]CCc1ccc([O-])c([N+](=O)[O-])c1","[NH3+]CCc1ccc([O-])c([N+](=O)[O-])c1",17.369373061749897,"[NH3+]CCc1ccc([O-])c([N+](=O)[O-])c1",-0.5471999999999999,93.84,182.06914218,5,3,3,1,3,0,5,13,23,0,1,1,0,0,0,0,0,1,0,0,0.25
"B-2906","2,4(1h,3h)-pteridinedione, 1,6,7-trimethyl-",-2.1129,"Cc1nc2c(=O)[nH]c(=O)n(C)c2nc1C","Cc1nc2c(nc1C)N(C)C(=O)NC2=O",32.531806668058685,"Cc1nc2c(nc1C)n(C)c(=O)[nH]c2=O",0.39304,75.19,206.08037556,6,1,0,1,4,3,6,15,25,0,2,1,0,1,1,0,1,0,0,0,0.3333333333333333
"B-2908","ipt (isoprothiolane)",-3.7306,"CC(C)OC(=O)C(C(=O)OC(C)C)=C1SCCS1","CC(C)OC(=O)C(C(=O)OC(C)C)=C1SCCS1",-24.796781580799273,"CC(C)OC(=O)C(=C1SCCS1)C(=O)OC(C)C",2.581200000000001,52.60000000000001,290.064651056,4,0,4,0,6,0,6,18,36,0,1,0,1,1,0,1,1,0,0,0,0.6666666666666666