"ID","Name","Solubility","SMILES Canonical","Smiles (Optimized Geometry)","Energy","Smiles","SlogP","TPSA","ExactMW","NumLipinskiHBA","NumLipinskiHBD","NumRotatableBonds","NumHBD","NumHBA","NumAmideBonds","NumHeteroAtoms","NumHeavyAtoms","NumAtoms","NumStereocenters","NumRings","NumAromaticRings","NumSaturatedRings","NumAliphaticRings","NumAromaticHeterocycles","NumSaturatedHeterocycles","NumAliphaticHeterocycles","NumAromaticCarbocycles","NumSaturatedCarbocycles","NumAliphaticCarbocycles","FractionCSP3"
"B-3260","imazamethabenz (isomer mix)",-2.4599,"COC(=O)c1ccc(C)cc1C1=[NH+]C(C)(C(C)C)C(=O)N1","COC(=O)c1ccc(C)cc1C1=[NH+]C(C)(C(C)C)C(=O)N1",-4.580957500512335,"COC(=O)c1ccc(C)cc1C1=[NH+]C(C)(C(C)C)C(=O)N1",0.15332000000000018,69.37,289.15466895209005,5,2,3,2,3,1,5,21,42,1,2,1,0,1,0,0,1,1,0,0,0.4375
"B-3262","3-pyridinecarboxamide, n-octyl-",-3.0081,"CCCCCCCCNC(=O)c1cccnc1","CCCCCCCCNC(=O)c1cccnc1",2.248885054475848,"CCCCCCCCNC(=O)c1cccnc1",3.1719000000000017,41.99,234.173213324,3,1,8,1,2,1,3,17,39,0,1,1,0,0,1,0,0,0,0,0,0.5714285714285714
"B-3263","3-pyridinecarboxamide, n-nonyl-",-3.1398,"CCCCCCCCCNC(=O)c1cccnc1","CCCCCCCCCNC(=O)c1cccnc1",2.3053654296320754,"CCCCCCCCCNC(=O)c1cccnc1",3.562000000000002,41.99,248.188863388,3,1,9,1,2,1,3,18,42,0,1,1,0,0,1,0,0,0,0,0,0.6
"B-3264","3-pyridinecarboxamide, n-decyl-",-3.0765,"CCCCCCCCCCNC(=O)c1cccnc1","CCCCCCCCCCNC(=O)c1cccnc1",2.0455239013160633,"CCCCCCCCCCNC(=O)c1cccnc1",3.9521000000000024,41.99,262.204513452,3,1,10,1,2,1,3,19,45,0,1,1,0,0,1,0,0,0,0,0,0.625
"B-3265","3-pyridinecarboxamide, n-undecyl-",-3.0266,"CCCCCCCCCCCNC(=O)c1cccnc1","CCCCCCCCCCCNC(=O)c1cccnc1",1.1524072501036406,"CCCCCCCCCCCNC(=O)c1cccnc1",4.342200000000004,41.99,276.220163516,3,1,11,1,2,1,3,20,48,0,1,1,0,0,1,0,0,0,0,0,0.6470588235294118
"B-3266","3-pyridinecarboxamide, n-dodecyl-",-3.2078,"CCCCCCCCCCCCNC(=O)c1cccnc1","CCCCCCCCCCCCNC(=O)c1cccnc1",1.2101988790050675,"CCCCCCCCCCCCNC(=O)c1cccnc1",4.732300000000004,41.99,290.23581357999996,3,1,12,1,2,1,3,21,51,0,1,1,0,0,1,0,0,0,0,0,0.6666666666666666
"B-3270","5,8-quinolinedione, dioxime",-3.7998,"ON=C1C=CC(=NO)c2ncccc21","ON=C1C=CC(=NO)c2ncccc21",59.23217449364367,"ON=C1C=CC(=NO)c2ncccc12",1.008,78.07000000000001,189.053826464,5,2,0,2,5,0,5,14,21,0,2,1,0,1,1,0,0,0,0,1,0
"B-3273","isoxaben",-5.3694,"CCC(C)(CC)c1cc(NC(=O)c2c(OC)cccc2OC)on1","CCC(C)(CC)c1cc(NC(=O)c2c(OC)cccc2OC)on1",54.015471438690994,"CCC(C)(CC)c1cc(NC(=O)c2c(OC)cccc2OC)on1",4.0218000000000025,73.59,332.173607248,6,1,7,1,5,1,6,24,48,0,2,2,0,0,1,0,0,1,0,0,0.4444444444444444
"B-3274","1-butanol, 3-ethoxy-",-0.3736,"CCOC(C)CCO","CCOC(C)CCO",-0.4455066619609571,"CCOC(C)CCO",0.7938000000000001,29.46,118.099379688,2,1,4,1,2,0,2,8,22,1,0,0,0,0,0,0,0,0,0,0,1
"B-3277","bensulfuron-methyl (ph7)",-3.534,"COC(=O)c1ccccc1CS(=O)(=O)NC(=O)Nc1nc(OC)cc(OC)n1","COC(=O)c1ccccc1CS(=O)(=O)NC(=O)Nc1nc(OC)cc(OC)n1",-128.70846263417397,"COC(=O)c1ccccc1CS(=O)(=O)NC(=O)Nc1nc(OC)cc(OC)n1",0.9319000000000001,145.81,410.089619916,11,2,7,2,9,2,12,28,46,0,2,2,0,0,1,0,0,1,0,0,0.25
"B-3279","alanycarb",-4.3005,"CCOC(=O)CCN(Cc1ccccc1)SN(C)C(=O)ON=C(C)SC","CCOC(=O)CCN(Cc1ccccc1)SN(C)C(=O)ON=C(C)SC",4.1162904915616,"CCOC(=O)CCN(Cc1ccccc1)SN(C)C(=O)ON=C(C)SC",3.7698000000000027,71.44,399.12864828,7,0,9,0,8,1,9,26,51,0,1,1,0,0,0,0,0,1,0,0,0.47058823529411764
"B-3280","diflufenican",-6.8969,"O=C(Nc1ccc(F)cc1F)c1cccnc1Oc1cccc(C(F)(F)F)c1","O=C(Nc1ccc(F)cc1F)c1cccnc1Oc1cccc(C(F)(F)F)c1",50.1730711974892,"O=C(Nc1ccc(F)cc1F)c1cccnc1Oc1cccc(C(F)(F)F)c1",5.423200000000003,51.22,394.074068692,4,1,4,1,3,1,9,28,39,0,3,3,0,0,1,0,0,2,0,0,0.05263157894736842
"B-3286","8-quinolinecarboxylic acid, 5-nitro-",-3.1656,"O=C([O-])c1ccc([N+](=O)[O-])c2cccnc12","O=C([O-])c1ccc([N+](=O)[O-])c2cccnc12",29.899251113002627,"O=C([O-])c1ccc([N+](=O)[O-])c2cccnc12",0.5064999999999997,96.16,217.02548021991,6,0,2,0,5,0,6,16,21,0,2,2,0,0,1,0,0,1,0,0,0
"B-3288","ethanol, 2-[(2-amino-9h-purin-9-yl)methoxy]-",-1.0775,"Nc1ncc2ncn(COCCO)c2n1","Nc1ncc2ncn(COCCO)c2n1",18.492739080689283,"Nc1ncc2ncn(COCCO)c2n1",-0.6251000000000002,99.08,209.091274592,7,3,4,2,7,0,7,15,26,0,2,2,0,0,2,0,0,0,0,0,0.375
"B-3290","1-pentanesulfinothioic acid, s-pentyl ester",-3.1711,"CCCCCSS(=O)CCCCC","CCCCCSS(=O)CCCCC",-2.3147407186672453,"CCCCCSS(=O)CCCCC",3.7637000000000027,17.07,222.111207324,1,0,9,0,2,0,3,13,35,1,0,0,0,0,0,0,0,0,0,0,1
"B-3291","pentanal, 5-methoxy-",0.4574,"COCCCCC=O","COCCCCC=O",-0.3718710556611793,"COCCCCC=O",1.002,26.3,116.083729624,2,0,5,0,2,0,2,8,20,0,0,0,0,0,0,0,0,0,0,0,0.8333333333333334
"B-3295","esprocarb",-4.7337,"CCN(C(=O)SCc1ccccc1)C(C)C(C)C","CCN(C(=O)SCc1ccccc1)C(C)C(C)C",-32.429841001098154,"CCN(C(=O)SCc1ccccc1)C(C)C(C)C",4.406200000000004,20.310000000000002,265.150035356,2,0,5,0,2,1,3,18,41,1,1,1,0,0,0,0,0,1,0,0,0.5333333333333333
"B-3296","primisulfuron-methyl",-5.152,"COC(=O)c1ccccc1S(=O)(=O)NC(=O)Nc1nc(OC(F)F)cc(OC(F)F)n1","COC(=O)c1ccccc1S(=O)(=O)NC(=O)Nc1nc(OC(F)F)cc(OC(F)F)n1",-196.6297056019219,"COC(=O)c1ccccc1S(=O)(=O)NC(=O)Nc1nc(OC(F)F)cc(OC(F)F)n1",1.9763999999999997,145.81,468.036282604,11,2,8,2,9,2,16,31,43,0,2,2,0,0,1,0,0,1,0,0,0.2
"B-3300","carbamic acid, (3,4-diethoxyphenyl)-, 1-methylet",-4.0022,"CCOc1ccc(NC(=O)OC(C)C)cc1OCC","CCOc1ccc(NC(=O)OC(C)C)cc1OCC",14.493428665881062,"CCOc1ccc(NC(=O)OC(C)C)cc1OCC",3.440900000000002,56.790000000000006,267.147058152,5,1,6,1,4,1,5,19,40,0,1,1,0,0,0,0,0,1,0,0,0.5
"B-3306","cinmethylin",-3.6391,"Cc1ccccc1COC1CC2(C(C)C)CCC1(C)O2","Cc1ccccc1COC1CC2(C(C)C)CCC1(C)O2",61.66630257445557,"Cc1ccccc1COC1CC2(C(C)C)CCC1(C)O2",4.2478200000000035,18.46,274.193280072,2,0,4,0,2,0,2,20,46,3,3,1,2,2,0,2,2,1,0,0,0.6666666666666666
"B-3311","2-propanol, 1,1-dinitro-",0.0789,"CC(O)[C-]([N+](=O)[O-])[N+](=O)[O-]","CC(O)[C-]([N+](=O)[O-])[N+](=O)[O-]",-72.58306176461183,"CC(O)[C-]([N+](=O)[O-])[N+](=O)[O-]",-0.5899100000000002,106.51000000000002,149.02039483991,7,1,3,1,5,0,7,10,15,1,0,0,0,0,0,0,0,0,0,0,0.6666666666666666
"B-3312","ferimzone",-3.1959,"CC(=NNc1nc(C)cc(C)n1)c1ccccc1C","CC(=NNc1nc(C)cc(C)n1)c1ccccc1C",57.08765651852429,"CC(=NNc1nc(C)cc(C)n1)c1ccccc1C",3.237960000000002,50.17,254.15314657599998,4,1,3,1,4,0,4,19,37,0,2,2,0,0,1,0,0,1,0,0,0.26666666666666666
"B-3313","purine-2,8(3h,9h)-dione, 3-methyl-",-0.794,"Cn1c(=O)ncc2[nH]c(=O)[nH]c21","CN1C(=O)N=CC2=C1NC(=O)N2",-43.03702380304294,"Cn1c(=O)ncc2c1[nH]c(=O)[nH]2",-0.3954999999999999,73.8,166.049075432,6,2,0,2,2,4,6,12,18,0,2,0,0,2,0,0,2,0,0,0,0.16666666666666666
"B-3315","(+)(r)-6-hydroxy-4-methyl-caproaldehyde",-1.0732,"C[C@@H](CCO)CCC=O","C[C@@H](CCO)CCC=O",3.1850078004575595,"C[C@@H](CCO)CCC=O",0.984,37.3,130.099379688,2,1,5,1,2,0,2,9,23,1,0,0,0,0,0,0,0,0,0,0,0.8571428571428571
"B-3316","2(3h)-pteridinone, 3-methyl-",-0.9089,"Cn1cc2nccnc2nc1=O","CN1C=C2N=CC=NC2=NC1=O",10.534468091647383,"Cn1cc2nccnc2nc1=O",0.4469,57.39,162.054160812,5,0,0,0,3,2,5,12,18,0,2,0,0,2,0,0,2,0,0,0,0.14285714285714285
"B-3317","5-isobenzofurancarbonitrile, 1,3-dihydro-3-oxo-",-2.7021,"N#Cc1ccc2c(c1)C(=O)OC2","N#Cc1ccc2c(c1)C(=O)OC2",11.698343651080535,"N#Cc1ccc2c(c1)C(=O)OC2",1.22868,50.09,159.0320284,3,0,0,0,3,0,3,12,17,0,2,1,0,1,0,0,1,1,0,0,0.1111111111111111
"B-3318","1-propanol, 2,2-bis(ethylsulfonyl)-",-0.1653,"CCS(=O)(=O)C(C)(CO)S(=O)(=O)CC","CCS(=O)(=O)C(C)(CO)S(=O)(=O)CC",-89.93657919884815,"CCS(=O)(=O)C(C)(CO)S(=O)(=O)CC",-0.4357,88.50999999999999,244.043915612,5,1,5,1,5,0,7,14,30,0,0,0,0,0,0,0,0,0,0,0,1
"B-3319","benzaldehyde, 2-amino-4-hydroxy-3-methoxy-",-0.2232,"COc1c(O)ccc(C=O)c1N","COc1c(O)ccc(C=O)c1N",32.571755868976645,"COc1c(O)ccc(C=O)c1N",0.7955000000000001,72.55,167.058243148,4,3,2,2,4,0,4,12,21,0,1,1,0,0,0,0,0,1,0,0,0.125
"B-3320","phthalic acid, 4-nitro-, 1-methyl ester",-2.0558,"COC(=O)c1ccc([N+](=O)[O-])cc1C(=O)[O-]","COC(=O)c1ccc([N+](=O)[O-])cc1C(=O)[O-]",12.136167714964675,"COC(=O)c1ccc([N+](=O)[O-])cc1C(=O)[O-]",-0.2551000000000001,109.57,224.02006049191002,7,0,3,0,6,0,7,16,22,0,1,1,0,0,0,0,0,1,0,0,0.1111111111111111
"B-3321","glutamic acid, n-(2-cyanoethyl)-",-1.3015,"N#CCC[NH2+][C@@H](CCC(=O)[O-])C(=O)[O-]","N#CCC[NH2+][C@@H](CCC(=O)[O-])C(=O)[O-]",-103.95768145262082,"N#CCC[NH2+][C@@H](CCC(=O)[O-])C(=O)[O-]",-3.8879199999999985,120.66,199.07243041191,6,2,7,1,5,0,6,14,25,1,0,0,0,0,0,0,0,0,0,0,0.625
"B-3322","barbituric acid, 5-acetonyl-5-ethyl-",-0.7661,"CCC1(CC(C)=O)C(=O)NC(=O)NC1=O","CCC1(CC(C)=O)C(=O)NC(=O)NC1=O",-68.02085223558635,"CCC1(CC(=O)C)C(=O)NC(=O)NC1=O",-0.2720999999999999,92.34,212.079706864,6,2,3,2,4,4,6,15,27,0,1,0,1,1,0,1,1,0,0,0,0.5555555555555556
"B-3323","nonanoic acid, 2,3-dihydroxy-",-1.5469,"CCCCCCC(O)C(O)C(=O)[O-]","CCCCCCC(O)C(O)C(=O)[O-]",37.25661540236581,"CCCCCCC(O)C(O)C(=O)[O-]",-0.5715,80.59,189.11323260391,4,2,7,2,4,0,4,13,30,2,0,0,0,0,0,0,0,0,0,0,0.8888888888888888
"B-3325","isoleucine, n-(2-cyanoethyl)-",-0.9818,"CC[C@H](C)[C@H]([NH2+]CCC#N)C(=O)[O-]","CC[C@H](C)[C@H]([NH2+]CCC#N)C(=O)[O-]",-67.16339903677971,"CC[C@H](C)[C@H]([NH2+]CCC#N)C(=O)[O-]",-1.3719199999999985,80.53,184.121177752,4,2,6,1,3,0,4,13,29,2,0,0,0,0,0,0,0,0,0,0,0.7777777777777778
"B-3326","2-pteridinol, 6,7-diethyl-",-2.2644,"CCc1nc2cnc(O)nc2nc1CC","CCc1nc2cnc(O)nc2nc1CC",48.19976063398107,"CCc1nc2cnc(O)nc2nc1CC",1.2501999999999998,71.79,204.101111004,5,1,2,1,5,0,5,15,27,0,2,2,0,0,2,0,0,0,0,0,0.4
"B-3327","propanoic acid, 2-(cyclohexyloxy)-2-methyl-",-1.0798,"CC(C)(OC1CCCCC1)C(=O)[O-]","CC(C)(OC1CCCCC1)C(=O)[O-]",87.99251119633792,"CC(C)(OC1CCCCC1)C(=O)[O-]",0.8641999999999999,49.36,185.11831798391,3,0,3,0,3,0,3,13,30,0,1,0,1,1,0,0,0,0,1,1,0.9
"B-3328","hydrocinnamic acid, .beta.-methoxy-",-1.6952,"COC(CC(=O)[O-])c1ccccc1","COC(CC(=O)[O-])c1ccccc1",-7.456480930578337,"COC(CC(=O)[O-])c1ccccc1",0.5140999999999998,49.36,179.07136779191,3,0,4,0,3,0,3,13,24,1,1,1,0,0,0,0,0,1,0,0,0.3
"B-3329","cyclohexane-1,3-dione, 2-nitro-5-phenyl-",-1.6688,"O=C1CC(c2ccccc2)CC(=O)C1[N+](=O)[O-]","O=C1CC(c2ccccc2)CC(=O)C1[N+](=O)[O-]",-34.11260913589245,"O=C1CC(c2ccccc2)CC(=O)C1[N+](=O)[O-]",1.3475,77.28,233.068807832,5,0,2,0,4,0,5,17,28,0,2,1,1,1,0,0,0,1,1,1,0.3333333333333333
"B-3330","malonamide, 2,2-dihydroxy-n,n'diphenyl-",-2.4568,"O=C(Nc1ccccc1)C(O)(O)C(=O)Nc1ccccc1","O=C(Nc1ccccc1)C(O)(O)C(=O)Nc1ccccc1",84.55399133525935,"O=C(Nc1ccccc1)C(O)(O)C(=O)Nc1ccccc1",0.9446999999999997,98.66,286.095356928,6,4,4,4,4,2,6,21,35,0,2,2,0,0,0,0,0,2,0,0,0.06666666666666667
"B-3331","barbituric acid, 5-(2-butenyl)-1,5-dimethyl-",-1.5445,"CC=CCC1(C)C(=O)NC(=O)N(C)C1=O","CC=CCC1(C)C(=O)NC(=O)N(C)C1=O",-82.86741999838308,"CC=CCC1(C)C(=O)NC(=O)N(C)C1=O",0.6671,66.48,210.100442308,5,1,2,1,3,4,5,15,29,1,1,0,1,1,0,1,1,0,0,0,0.5
"B-3332","2-hydroxy-but-3-enoic acid ethyl ester",0.3627,"C=CC(O)C(=O)OCC","C=CC(O)C(=O)OCC",21.822293802581793,"C=CC(O)C(=O)OCC",0.09640000000000004,46.53,130.06299418,3,1,3,1,3,0,3,9,19,1,0,0,0,0,0,0,0,0,0,0,0.5
"B-3333","pyran, 2,2'-oxybis[tetrahydro-6-methyl-",-1.1083,"CC1CCCC(OC2CCCC(C)O2)O1","CC1CCCC(OC2CCCC(C)O2)O1",-18.544955568478834,"CC1CCCC(OC2CCCC(C)O2)O1",2.8332000000000015,27.69,214.156894564,3,0,2,0,3,0,3,15,37,4,2,0,2,2,0,2,2,0,0,0,1
"B-3334","phosphoric acid, methyl dipropyl ester",-0.6592,"CCCOP(=O)(OC)OCCC","CCCOP(=O)(OC)OCCC",-82.31159561268758,"CCCOP(=O)(OC)OCCC",2.594100000000001,44.760000000000005,196.086445654,4,0,7,0,4,0,5,12,29,0,0,0,0,0,0,0,0,0,0,0,1
"B-3335","pyrimido[5,4-d]pyrimidine-2,4,8(3h)-trione, 1,7-",-1.985,"Cn1cnc2c(=O)n(C)c(=O)n(C)c2c1=O","CN1C=NC2=C(C1=O)N(C)C(=O)N(C)C2=O",-85.33251871146152,"Cn1cnc2c(c1=O)n(C)c(=O)n(C)c2=O",-0.7778999999999998,73.29,222.07529018,7,0,0,0,4,4,7,16,26,0,2,0,0,2,0,0,2,0,0,0,0.3333333333333333
"B-3336","glycine, n-naphthalene-2-sulfonyl)-",-2.8497,"O=C([O-])CNS(=O)(=O)c1ccc2ccccc2c1","O=C([O-])CNS(=O)(=O)c1ccc2ccccc2c1",23.969225357148243,"O=C([O-])CNS(=O)(=O)c1ccc2ccccc2c1",-0.13199999999999967,86.29999999999998,264.03360237991,5,1,4,1,4,0,6,18,28,0,2,2,0,0,0,0,0,2,0,0,0.08333333333333333
"B-3337","12-butyl-benz[a]anthracene",-7.5245,"CCCCc1c2ccccc2cc2ccc3ccccc3c12","CCCCc1c2ccccc2cc2ccc3ccccc3c12",60.40955262800352,"CCCCc1c2ccccc2cc2ccc3ccccc3c12",6.488800000000005,0,284.15650064,0,0,3,0,0,0,0,22,42,0,4,4,0,0,0,0,0,4,0,0,0.18181818181818182
"B-3339","pyrazosulfuron-ethyl",-4.4561,"CCOC(=O)c1cnn(C)c1S(=O)(=O)NC(=O)Nc1nc(OC)cc(OC)n1","CCOC(=O)c1cnn(C)c1S(=O)(=O)NC(=O)Nc1nc(OC)cc(OC)n1",-216.2781753563316,"CCOC(=O)c1cnn(C)c1S(=O)(=O)NC(=O)Nc1nc(OC)cc(OC)n1",-0.08559999999999879,163.62999999999994,414.095767916,13,2,7,2,11,2,14,28,46,0,2,2,0,0,2,0,0,0,0,0,0.35714285714285715
"B-3340","glycine, n-[n-(2-naphthalenylsulfonyl)glycyl]-",-2.6954,"O=C([O-])CNC(=O)CNS(=O)(=O)c1ccc2ccccc2c1","O=C([O-])CNC(=O)CNS(=O)(=O)c1ccc2ccccc2c1",19.670574170117366,"O=C([O-])CNC(=O)CNS(=O)(=O)c1ccc2ccccc2c1",-1.0157999999999967,115.39999999999998,321.05506609591004,7,2,6,2,5,1,8,22,35,0,2,2,0,0,0,0,0,2,0,0,0.14285714285714285
"B-3343","cinosulfuron",-3.5372,"COCCOc1ccccc1S(=O)(=O)NC(=O)Nc1nc(OC)nc(OC)n1","COCCOc1ccccc1S(=O)(=O)NC(=O)Nc1nc(OC)nc(OC)n1",-228.49766056445634,"COCCOc1ccccc1S(=O)(=O)NC(=O)Nc1nc(OC)nc(OC)n1",0.42440000000000017,150.86,413.10051894800006,12,2,9,2,10,2,13,28,47,0,2,2,0,0,1,0,0,1,0,0,0.3333333333333333
"B-3344","cadusafos",-3.0376,"CCOP(=O)(SC(C)CC)SC(C)CC","CCOP(=O)(SC(C)CC)SC(C)CC",-67.71509770163422,"CCOP(=O)(SC(C)CC)SC(C)CC",5.194400000000004,26.3,270.087708606,2,0,8,0,4,0,5,15,38,2,0,0,0,0,0,0,0,0,0,0,1
"B-3345","acetic acid, (cyclopentyloxy)-",-0.8471,"O=C([O-])COC1CCCC1","O=C([O-])COC1CCCC1",68.33379326052058,"O=C([O-])COC1CCCC1",-0.3045000000000002,49.36,143.07136779190998,3,0,3,0,3,0,3,10,21,0,1,0,1,1,0,0,0,0,1,1,0.8571428571428571
"B-3346","tebupirimfos",-4.7626,"CCOP(=S)(Oc1cnc(C(C)(C)C)nc1)OC(C)C","CCOP(=S)(Oc1cnc(C(C)(C)C)nc1)OC(C)C",-65.42978750251076,"CCOP(=S)(Oc1cnc(C(C)(C)C)nc1)OC(C)C",3.8389000000000033,53.47,318.116700226,5,0,6,0,6,0,7,20,43,1,1,1,0,0,1,0,0,0,0,0,0.6923076923076923
"B-3349","flurtamone",-3.9788,"C[NH2+]C1=C(c2cccc(C(F)(F)F)c2)C(=O)C(c2ccccc2)O1","C[NH2+]C1=C(c2cccc(C(F)(F)F)c2)C(=O)C(c2ccccc2)O1",48.635688284011046,"C[NH2+]C1=C(c2cccc(C(F)(F)F)c2)C(=O)C(c2ccccc2)O1",2.9078000000000017,42.91,334.10493980009,3,2,3,1,2,0,6,24,39,1,3,2,0,1,0,0,1,2,0,0,0.16666666666666666
"B-3350","propanamide, 2-hydroxy-n-tetradecyl-",-3.9784,"CCCCCCCCCCCCCCNC(=O)C(C)O","CCCCCCCCCCCCCCNC(=O)C(C)O",9.978679309967763,"CCCCCCCCCCCCCCNC(=O)C(C)O",4.184500000000003,49.33,285.26677936,3,2,14,2,2,1,3,20,55,1,0,0,0,0,0,0,0,0,0,0,0.9411764705882353
"B-3351","methyl (1-phenylsulfonyl) cyclopropane carboxyla",-2.2601,"COC(=O)C1(S(=O)(=O)c2ccccc2)CC1","COC(=O)C1(S(=O)(=O)c2ccccc2)CC1",-44.4201376396274,"COC(=O)C1(S(=O)(=O)c2ccccc2)CC1",1.1659,60.440000000000005,240.045629864,4,0,3,0,4,0,5,16,28,0,2,1,1,1,0,0,0,1,1,1,0.36363636363636365
"B-3354","dithiopyr",-5.4575,"CSC(=O)c1c(C(F)F)nc(C(F)(F)F)c(C(=O)SC)c1CC(C)C","CSC(=O)c1c(C(F)F)nc(C(F)(F)F)c(C(=O)SC)c1CC(C)C",93.92787840971529,"CSC(=O)c1c(C(F)F)nc(C(F)(F)F)c(C(=O)SC)c1CC(C)C",5.242900000000003,47.03,401.05426185199997,3,0,5,0,5,0,10,25,41,0,1,1,0,0,1,0,0,0,0,0,0.5333333333333333
"B-3355","1,2,4-thiadiazol-5-amine, 3-methoxy-",-1.2427,"COc1nsc(N)n1","COc1nsc(N)n1",-20.96711209926373,"COc1nsc(N)n1",0.1288999999999999,61.03,131.01533278,4,2,1,1,5,0,5,8,13,0,1,1,0,0,1,0,0,0,0,0,0.3333333333333333
"B-3356","1,2,4-thiadiazole, 5-amino-3-ethoxy-",-0.6514,"CCOc1nsc(N)n1","CCOc1nsc(N)n1",-21.081914413537177,"CCOc1nsc(N)n1",0.519,61.03,145.030982844,4,2,2,1,5,0,5,9,16,0,1,1,0,0,1,0,0,0,0,0,0.5
"B-3357","1-propanol, 2,3-dimercapto-, 1-acetate",-1.2208,"CC(=O)OCC(S)CS","CC(=O)OCC(S)CS",-1.876372502047491,"CC(=O)OCC(S)CS",0.7776999999999998,26.3,166.01222156,2,0,3,2,4,0,4,9,19,1,0,0,0,0,0,0,0,0,0,0,0.8
"B-3358","hexanamide, 2-ethylidene-",-1.3717,"CC=C(CCCC)C(N)=O","CC=C(CCCC)C(N)=O",8.500500216730888,"CC=C(CCCC)C(=O)N",1.6081999999999999,43.09,141.1153641,2,2,4,1,1,1,2,10,25,0,0,0,0,0,0,0,0,0,0,0,0.625
"B-3359","pyrazinamide, n-2-pyrimidinyl-",-0.3036,"O=C(Nc1ncccn1)c1cnccn1","O=C(Nc1ncccn1)c1cnccn1",50.34039964094504,"O=C(Nc1ncccn1)c1cnccn1",0.5188999999999999,80.66000000000001,201.065059844,6,1,2,1,5,1,6,15,22,0,2,2,0,0,2,0,0,0,0,0,0
"B-3361","3-pyridinecarboxylic acid, nonyl ester",-3.0958,"CCCCCCCCCOC(=O)c1cccnc1","CCCCCCCCCOC(=O)c1cccnc1",2.467660107112547,"CCCCCCCCCOC(=O)c1cccnc1",3.9890000000000034,39.19,249.172878976,3,0,9,0,3,0,3,18,41,0,1,1,0,0,1,0,0,0,0,0,0.6
"B-3362","fosthiazate",-1.4589,"CCOP(=O)(SC(C)CC)N1CCSC1=O","CCOP(=O)(SC(C)CC)N1CCSC1=O",-161.43325603488768,"CCOP(=O)(SC(C)CC)N1CCSC1=O",3.831500000000003,46.61,283.04657206599995,4,0,6,0,5,1,7,16,34,2,1,0,1,1,0,1,1,0,0,0,0.8888888888888888
"B-3363","flumetsulam",-3.8248,"Cc1ccn2nc(S(=O)(=O)Nc3c(F)cccc3F)nc2n1","CC1=Nc2nc(S(=O)(=O)Nc3c(F)cccc3F)nn2C=C1",151.78914073380494,"Cc1nc2nc(S(=O)(=O)Nc3c(F)cccc3F)nn2cc1",1.9338,89.24,325.0445019680001,7,1,3,1,6,0,10,22,31,0,3,2,0,1,1,0,1,1,0,0,0.08333333333333333
"B-3364","pyrazinamide, n-(4-methyl-2-pyrimidinyl)-",-0.7308,"Cc1ccnc(NC(=O)c2cnccn2)n1","Cc1ccnc(NC(=O)c2cnccn2)n1",61.172226503086904,"Cc1ccnc(NC(=O)c2cnccn2)n1",0.8273199999999998,80.66000000000001,215.080709908,6,1,2,1,5,1,6,16,25,0,2,2,0,0,2,0,0,0,0,0,0.1
"B-3366","1(3h)-isobenzofuranone, 3,3-dimethyl-6-nitro-",-3.0516,"CC1(C)OC(=O)c2cc([N+](=O)[O-])ccc21","CC1(C)OC(=O)c2cc([N+](=O)[O-])ccc21",22.315768550412063,"CC1(C)OC(=O)c2cc([N+](=O)[O-])ccc12",2.0003,69.44,207.053157768,5,0,1,0,4,0,5,15,24,0,2,1,0,1,0,0,1,1,0,0,0.3
"B-3367","phthalide, 3-ethyl-6-nitro-",-2.55,"CCC1OC(=O)c2cc([N+](=O)[O-])ccc21","CCC1OC(=O)c2cc([N+](=O)[O-])ccc21",21.299105516818283,"CCC1OC(=O)c2cc([N+](=O)[O-])ccc12",2.2163000000000004,69.44,207.053157768,5,0,2,0,4,0,5,15,24,1,2,1,0,1,0,0,1,1,0,0,0.3
"B-3368","butanal, 3-hydroxy-2-methyl-",-0.4906,"CC(O)C(C)C=O","CC(O)C(C)C=O",-4.005865333704721,"CC(O)C(C)C=O",0.2022,37.3,102.06807956,2,1,2,1,2,0,2,7,17,2,0,0,0,0,0,0,0,0,0,0,0.8
"B-3369","8-quinazolinol, 4-methyl-",-2.6025,"Cc1ncnc2c(O)cccc12","Cc1ncnc2c(O)cccc12",8.338794490583604,"Cc1ncnc2c(O)cccc12",1.6438199999999998,46.010000000000005,160.063662876,3,1,0,1,3,0,3,12,20,0,2,2,0,0,1,0,0,1,0,0,0.1111111111111111
"B-3370","7(8h)-pteridinone, 6,8-dimethyl-",-1.489,"Cc1nc2cncnc2n(C)c1=O","CC1=Nc2cncnc2N(C)C1=O",26.033355716016967,"Cc1nc2cncnc2n(C)c1=O",0.5453999999999999,58.45,176.069810876,5,0,0,0,4,1,5,13,21,0,2,1,0,1,1,0,1,0,0,0,0.25
"B-3372","2,6-piperidinedicarboxamide",0.2893,"NC(=O)C1CCCC(C(N)=O)[NH2+]1","NC(=O)C1CCCC(C(N)=O)[NH2+]1",-2.960544295247859,"NC(=O)C1CCCC(C(=O)N)[NH2+]1",-2.5584999999999987,102.79,172.10805310809,5,6,2,3,2,2,5,12,26,2,1,0,1,1,0,1,1,0,0,0,0.7142857142857143
"B-3373","1,2-cyclohexanedione, 4-tert-pentyl-, dioxime",-3.9652,"CCC(C)(C)C1CCC(=NO)C(=NO)C1","CCC(C)(C)C1CCC(=NO)C(=NO)C1",43.7949327323792,"CCC(C)(C)C1CCC(=NO)C(=NO)C1",2.8831000000000007,65.18,212.15247788,4,2,2,2,4,0,4,15,35,1,1,0,1,1,0,0,0,0,1,1,0.8181818181818182
"B-3374","8-quinazolinol, 4-propyl-",-2.9206,"CCCc1ncnc2c(O)cccc12","CCCc1ncnc2c(O)cccc12",8.941365786818801,"CCCc1ncnc2c(O)cccc12",2.2879000000000005,46.010000000000005,188.094963004,3,1,2,1,3,0,3,14,26,0,2,2,0,0,1,0,0,1,0,0,0.2727272727272727
"B-3375","1-naphthalenepropanoic acid, .beta.-amino-, ()",-1.5902,"[NH3+][C@H](CC(=O)[O-])c1cccc2ccccc12","[NH3+][C@H](CC(=O)[O-])c1cccc2ccccc12",-105.35355360928004,"[NH3+][C@H](CC(=O)[O-])c1cccc2ccccc12",0.2628000000000008,67.77,215.094628656,3,3,3,1,2,0,3,16,29,1,2,2,0,0,0,0,0,2,0,0,0.15384615384615385
"B-3376","3-pyridinecarboxylic acid, heptyl ester",-2.7429,"CCCCCCCOC(=O)c1cccnc1","CCCCCCCOC(=O)c1cccnc1",2.481490540955054,"CCCCCCCOC(=O)c1cccnc1",3.208800000000002,39.19,221.141578848,3,0,7,0,3,0,3,16,35,0,1,1,0,0,1,0,0,0,0,0,0.5384615384615384
"B-3379","quinoline, 5-acetamido-8-ethoxy-",-1.5171,"CCOc1ccc(NC(C)=O)c2cccnc12","CCOc1ccc(NC(C)=O)c2cccnc12",46.56148028207803,"CCOc1ccc(NC(=O)C)c2cccnc12",2.5919000000000008,51.22,230.105527688,4,1,3,1,3,1,4,17,31,0,2,2,0,0,1,0,0,1,0,0,0.23076923076923078