"ID","Name","Solubility","SMILES Canonical","Smiles (Optimized Geometry)","Energy","Smiles","SlogP","TPSA","ExactMW","NumLipinskiHBA","NumLipinskiHBD","NumRotatableBonds","NumHBD","NumHBA","NumAmideBonds","NumHeteroAtoms","NumHeavyAtoms","NumAtoms","NumStereocenters","NumRings","NumAromaticRings","NumSaturatedRings","NumAliphaticRings","NumAromaticHeterocycles","NumSaturatedHeterocycles","NumAliphaticHeterocycles","NumAromaticCarbocycles","NumSaturatedCarbocycles","NumAliphaticCarbocycles","FractionCSP3"
"A-5555","bis(1,3-benzothiazol-2-ylsulfanyl)(tert-butyl)amine",-8.3629378574,"CC(C)(C)N(Sc1nc2ccccc2s1)Sc1nc2ccccc2s1","CC(C)(C)N(Sc1nc2ccccc2s1)Sc1nc2ccccc2s1",56.44497970061757,"CC(C)(C)N(Sc1nc2ccccc2s1)Sc1nc2ccccc2s1",6.720900000000004,29.020000000000003,403.03053154400004,3,0,4,0,7,0,7,25,42,0,4,4,0,0,2,0,0,2,0,0,0.2222222222222222
"A-5560","1,4-bis(2-ethylhexyl) benzene-1,4-dicarboxylate",-8.9896322186,"CCCCC(CC)COC(=O)c1ccc(C(=O)OCC(CC)CCCC)cc1","CCCCC(CC)COC(=O)c1ccc(C(=O)OCC(CC)CCCC)cc1",13.673703123266794,"CCCCC(CC)COC(=O)c1ccc(C(=O)OCC(CC)CCCC)cc1",6.433000000000007,52.60000000000001,390.277009696,4,0,14,0,4,0,4,28,66,2,1,1,0,0,0,0,0,1,0,0,0.6666666666666666
"A-5578","3,9-bis(2,4-di-tert-butylphenoxy)-2,4,8,10-tetraoxa-3,9-diphosphaspiro[5.5]undecane",-6.813060611,"CC(C)(C)c1ccc(OP2OCC3(CO2)COP(Oc2ccc(C(C)(C)C)cc2C(C)(C)C)OC3)c(C(C)(C)C)c1","CC(C)(C)c1ccc(OP2OCC3(CO2)COP(Oc2ccc(C(C)(C)C)cc2C(C)(C)C)OC3)c(C(C)(C)C)c1",15.58181995158342,"CC(C)(C)c1ccc(OP2OCC3(CO2)COP(Oc2ccc(C(C)(C)C)cc2C(C)(C)C)OC3)c(C(C)(C)C)c1",9.868199999999998,55.38000000000001,604.30826258,6,0,4,0,6,0,8,41,91,0,4,2,2,2,0,2,2,2,0,0,0.6363636363636364
"A-5603","2-[(E)-2-(2-methoxyphenyl)diazen-1-yl]-3-oxo-N-(2-oxo-2,3-dihydro-1H-1,3-benzodiazol-5-yl)butanamide",-7.6305993261,"COc1ccccc1N=NC(C(C)=O)C(=O)Nc1ccc2[nH]c(=O)[nH]c2c1","COc1ccccc1N=NC(C(C)=O)C(=O)Nc1ccc2c(c1)NC(=O)N2",85.6086408299973,"COc1ccccc1N=NC(C(=O)C)C(=O)Nc1ccc2c(c1)[nH]c(=O)[nH]2",3.3326000000000002,121.25,367.12805402400005,9,3,6,3,6,3,9,27,44,1,3,2,0,1,0,0,1,2,0,0,0.16666666666666666
"A-5607","5-methyl-2-phenyl-4-(phenyldiazenyl)-2,4-dihydro-3H-pyrazol-3-one",-7.5414466266,"CC1=NN(c2ccccc2)C(=O)C1N=Nc1ccccc1","CC1=NN(c2ccccc2)C(=O)C1N=Nc1ccccc1",94.36299215627615,"CC1=NN(c2ccccc2)C(=O)C1N=Nc1ccccc1",3.561600000000002,57.39,278.116761068,5,0,3,0,4,1,5,21,35,1,3,2,0,1,0,0,1,2,0,0,0.125
"A-5614","2,2,3,3,5,5,6,6-octafluoro-4-(trifluoromethyl)morpholine",-5.5960586261,"FC(F)(F)N1C(F)(F)C(F)(F)OC(F)(F)C1(F)F","FC(F)(F)N1C(F)(F)C(F)(F)OC(F)(F)C1(F)F",-64.82476430354289,"FC(F)(F)N1C(F)(F)C(F)(F)OC(F)(F)C1(F)F",3.2095999999999996,12.47,298.98042404,2,0,0,0,2,0,13,18,18,0,1,0,1,1,0,1,1,0,0,0,1
"A-5624","4-{[2,5-dimethoxy-4-(methylsulfamoyl)phenyl]diazenyl}-3-hydroxy-N-(2-oxo-2,3-dihydro-1H-benzimidazol-5-yl)-2-naphthamide",-7.8916361395,"CNS(=O)(=O)c1cc(OC)c(NN=C2C(=O)C(C(=O)Nc3ccc4[nH]c(=O)[nH]c4c3)=Cc3ccccc32)cc1OC","CNS(=O)(=O)c1cc(OC)c(NN=C2C(=O)C(C(=O)Nc3ccc4c(c3)NC(=O)N4)=Cc3ccccc32)cc1OC",67.87851774923287,"CNS(=O)(=O)c1cc(OC)c(NN=C2C(=O)C(=Cc3ccccc23)C(=O)Nc2ccc3c(c2)[nH]c(=O)[nH]3)cc1OC",2.9903000000000013,176.32,576.142718108,13,5,8,5,9,3,14,41,65,0,5,3,0,2,0,0,1,3,0,1,0.1111111111111111
"A-5625","C.i. Pigment Orange 43",-7.7579945848,"O=c1c2ccc3c4c(ccc(c24)c2nc4ccccc4n12)c(=O)n1c2ccccc2nc31","O=C1c2ccc3c4c(ccc(c24)-c2nc4ccccc4n21)C(=O)n1c-3nc2ccccc21",86.68967920765628,"O=c1c2ccc3c4c(ccc(c24)c2nc4ccccc4n12)c(=O)n1c3nc2ccccc12",4.877000000000003,69.78,412.09602562400005,6,0,0,0,6,0,6,32,44,0,8,6,0,2,2,0,2,4,0,0,0
"A-5627","1,4-bis[(2,4,6-trimethylphenyl)amino]-9,10-dihydroanthracene-9,10-dione",-7.8250730454,"Cc1cc(C)c(Nc2ccc(Nc3c(C)cc(C)cc3C)c3c2C(=O)c2ccccc2C3=O)c(C)c1","Cc1cc(C)c(Nc2ccc(Nc3c(C)cc(C)cc3C)c3c2C(=O)c2ccccc2C3=O)c(C)c1",72.55998078391731,"Cc1cc(C)c(Nc2ccc(Nc3c(C)cc(C)cc3C)c3c2C(=O)c2ccccc2C3=O)c(C)c1",7.799720000000007,58.199999999999996,474.23072819999993,4,2,4,2,4,0,4,36,66,0,5,4,0,1,0,0,0,4,0,1,0.1875
"A-5638","propan-2-ylcyclohexane",-5.3116265943,"CC(C)C1CCCCC1","CC(C)C1CCCCC1",13.534284699713144,"CC(C)C1CCCCC1",3.2227000000000023,0,126.14085057599999,0,0,1,0,0,0,0,9,27,0,1,0,1,1,0,0,0,0,1,1,1
"A-5649","1H-Thioxantheno[2,1,9-def]isoquinoline-1,3(2H)-dione, 2-octadecyl-",-7.9667891703,"CCCCCCCCCCCCCCCCCCn1c(=O)c2ccc3sc4ccccc4c4ccc(c1=O)c2c34","CCCCCCCCCCCCCCCCCCN1C(=O)c2ccc3c4c(ccc(c24)C1=O)-c1ccccc1S3",19.546241491523006,"CCCCCCCCCCCCCCCCCCn1c(=O)c2ccc3c4c(ccc(c24)c1=O)c1ccccc1s3",10.828899999999988,37.38,555.31710068,3,0,17,0,3,2,4,40,85,0,5,3,0,2,0,0,2,3,0,0,0.5
"A-5660","2,6,10-trimethyldodecane",-6.61539022,"CCC(C)CCCC(C)CCCC(C)C","CCC(C)CCCC(C)CCCC(C)C",9.45690710447043,"CCC(C)CCCC(C)CCCC(C)C",5.665200000000006,0,212.25040102399998,0,0,9,0,0,0,0,15,47,2,0,0,0,0,0,0,0,0,0,0,1
"A-5663","1-ethyl-6-hydroxy-4-methyl-5-[(E)-2-(2-nitrophenyl)diazen-1-yl]-2-oxo-1,2-dihydropyridine-3-carbonitrile",-6.815976001,"CCN1C(=O)C(=NNc2ccccc2[N+](=O)[O-])C(C)=C(C#N)C1=O","CCN1C(=O)C(=NNc2ccccc2[N+](=O)[O-])C(C)=C(C#N)C1=O",20.57451053484304,"CCN1C(=O)C(=NNc2ccccc2[N+](=O)[O-])C(=C(C#N)C1=O)C",1.59148,128.7,327.096753896,9,1,4,1,7,2,9,24,37,0,2,1,0,1,0,0,1,1,0,0,0.2
"A-5666","tris(2-methylphenyl) phosphite",-7.7798430604,"Cc1ccccc1OP(Oc1ccccc1C)Oc1ccccc1C","Cc1ccccc1OP(Oc1ccccc1C)Oc1ccccc1C",51.85780255177455,"Cc1ccccc1OP(Oc1ccccc1C)Oc1ccccc1C",6.3755600000000054,27.69,352.122831162,3,0,6,0,3,0,4,25,46,0,3,3,0,0,0,0,0,3,0,0,0.14285714285714285
"A-5668","2,9-dimethyl-5,7,12,14-tetrahydro-5,12-diazapentacene-7,14-dione",-7.7837785588,"Cc1ccc2[nH]c3cc4c(=O)c5cc(C)ccc5[nH]c4cc3c(=O)c2c1","Cc1ccc2c(c1)C(=O)c1cc3c(cc1N2)C(=O)c1cc(C)ccc1N3",57.563219024310925,"Cc1ccc2c(c1)c(=O)c1cc3c(cc1[nH]2)c(=O)c1cc(C)ccc1[nH]3",4.879440000000002,58.2,340.12117775199994,4,2,0,2,4,0,4,26,42,0,5,3,0,2,0,0,2,3,0,0,0.09090909090909091
"A-5673","1,4-Bis(4-phenoxybenzoyl)benzene",-7.973611776,"O=C(c1ccc(Oc2ccccc2)cc1)c1ccc(C(=O)c2ccc(Oc3ccccc3)cc2)cc1","O=C(c1ccc(Oc2ccccc2)cc1)c1ccc(C(=O)c2ccc(Oc3ccccc3)cc2)cc1",124.7108456423368,"O=C(c1ccc(Oc2ccccc2)cc1)c1ccc(C(=O)c2ccc(Oc3ccccc3)cc2)cc1",7.733200000000005,52.60000000000001,470.15180918399994,4,0,8,0,4,0,4,36,58,0,5,5,0,0,0,0,0,5,0,0,0
"A-5675","2,2'-(1,4-phenylene)bis[4-(4-methoxybenzylidene)-1,3-oxazol-5(4H)-one]",-6.9835711537,"COc1ccc(C=C2N=C(c3ccc(C4=NC(=Cc5ccc(OC)cc5)C(=O)O4)cc3)OC2=O)cc1","COc1ccc(C=C2N=C(c3ccc(C4=NC(=Cc5ccc(OC)cc5)C(=O)O4)cc3)OC2=O)cc1",104.49491378664885,"COc1ccc(C=C2N=C(c3ccc(C4=NC(=Cc5ccc(OC)cc5)C(=O)O4)cc3)OC2=O)cc1",4.392800000000003,95.78,480.13213635999983,8,0,6,0,8,0,8,36,56,0,5,3,0,2,0,0,2,3,0,0,0.07142857142857142
"A-5676","ethyl 9-oxo-9H-thioxanthene-2-carboxylate",-6.7566025068,"CCOC(=O)c1ccc2sc3ccccc3c(=O)c2c1","CCOC(=O)c1ccc2c(c1)C(=O)c1ccccc1S2",29.34742043327774,"CCOC(=O)c1ccc2c(c1)c(=O)c1ccccc1s2",3.558900000000002,43.370000000000005,284.050715244,3,0,2,0,4,0,4,20,32,0,3,2,0,1,0,0,1,2,0,0,0.125
"A-5684","1,4-bis(2-ethylhexyl) cyclohexane-1,4-dicarboxylate",-6.9262679923,"CCCCC(CC)COC(=O)C1CCC(C(=O)OCC(CC)CCCC)CC1","CCCCC(CC)COC(=O)C1CCC(C(=O)OCC(CC)CCCC)CC1",4.891734903587608,"CCCCC(CC)COC(=O)C1CCC(C(=O)OCC(CC)CCCC)CC1",6.312000000000007,52.60000000000001,396.323959888,4,0,14,0,4,0,4,28,72,2,1,0,1,1,0,0,0,0,1,1,0.9166666666666666
"A-5687","2-methylheptadecyl 3-methylheptadecanoate",-7.0864973463,"CC(C)CCCCCCCCCCCCCCCOC(=O)CCCCCCCCCCCCCCC(C)C","CC(C)CCCCCCCCCCCCCCCOC(=O)CCCCCCCCCCCCCCC(C)C",-9.423566408790645,"CC(C)CCCCCCCCCCCCCCCOC(=O)CCCCCCCCCCCCCCC(C)C",12.764399999999979,26.3,536.553231544,2,0,31,0,2,0,2,38,110,0,0,0,0,0,0,0,0,0,0,0,0.9722222222222222
"A-5688","3-methylcyclopentadecanone",-5.7438651202,"CC1CCCCCCCCCCCCC(=O)C1","CC1CCCCCCCCCCCCC(=O)C1",10.277975499321895,"CC1CCCCCCCCCCCCC(=O)C1",5.276500000000005,17.07,238.22966558000002,1,0,0,0,1,0,1,17,47,1,1,0,1,1,0,0,0,0,1,1,0.9375
"A-5693","1,4-bis(propan-2-yl)benzene",-6.6027992709,"CC(C)c1ccc(C(C)C)cc1","CC(C)c1ccc(C(C)C)cc1",19.451575266925865,"CC(C)c1ccc(C(C)C)cc1",3.9334000000000033,0,162.140850576,0,0,2,0,0,0,0,12,30,0,1,1,0,0,0,0,0,1,0,0,0.5
"A-5695","4-[(1,5-dihydro-3-methyl-5-oxo-1-phenyl-4H-pyrazol-4-ylidene)methyl]-2,4-dihydro-5-methyl-2-phenyl-3H-pyrazol-3-one",-7.8822713548,"CC1=NN(c2ccccc2)C(=O)C1=CC1C(=O)N(c2ccccc2)N=C1C","CC1=NN(c2ccccc2)C(=O)C1=CC1C(=O)N(c2ccccc2)N=C1C",93.02152461197257,"CC1=NN(c2ccccc2)C(=O)C1=CC1C(=O)N(c2ccccc2)N=C1C",3.3744000000000023,65.34,358.142975816,6,0,3,0,4,2,6,27,45,1,4,2,0,2,0,0,2,2,0,0,0.14285714285714285
"A-5696","3-hydroxy-4-[(E)-2-(2-methyl-4-nitrophenyl)diazen-1-yl]-N-(2-methylphenyl)naphthalene-2-carboxamide",-7.9811476568,"Cc1cc([N+](=O)[O-])ccc1NN=C1C(=O)C(C(=O)Nc2ccccc2C)=Cc2ccccc21","Cc1cc([N+](=O)[O-])ccc1NN=C1C(=O)C(C(=O)Nc2ccccc2C)=Cc2ccccc21",90.13009443872092,"Cc1cc([N+](=O)[O-])ccc1NN=C1C(=O)C(=Cc2ccccc12)C(=O)Nc1ccccc1C",4.632640000000003,113.69999999999999,440.14845512,8,2,5,2,6,1,8,33,53,0,4,3,0,1,0,0,0,3,0,1,0.08
"A-5699","1,4-bis(butylamino)-9,10-dihydroanthracene-9,10-dione",-7.9318570783,"CCCCNc1ccc(NCCCC)c2c1C(=O)c1ccccc1C2=O","CCCCNc1ccc(NCCCC)c2c1C(=O)c1ccccc1C2=O",58.66816550774119,"CCCCNc1ccc(NCCCC)c2c1C(=O)c1ccccc1C2=O",4.886000000000004,58.199999999999996,350.19942807199993,4,2,8,2,4,0,4,26,52,0,3,2,0,1,0,0,0,2,0,1,0.36363636363636365
"A-5700","(2E,7R,11R)-3,7,11,15-tetramethylhexadec-2-en-1-ol; (2Z,7R,11R)-3,7,11,15-tetramethylhexadec-2-en-1-ol",-4.8617411072,"CC(=CCO)CCC[C@H](C)CCC[C@H](C)CCCC(C)C","CC(=CCO)CCC[C@H](C)CCC[C@H](C)CCCC(C)C",13.839272588198074,"CC(=CCO)CCC[C@H](C)CCC[C@H](C)CCCC(C)C",6.364100000000007,20.23,296.3079159,1,1,13,1,1,0,1,21,61,2,0,0,0,0,0,0,0,0,0,0,0.9
"A-5702","docosan-1-amine; hexadecan-1-amine; icosan-1-amine; octadecan-1-amine",-5.8571242399,"CCCCCCCCCCCCCCCCCCC[NH3+]","CCCCCCCCCCCCCCCCCCC[NH3+]",-0.7787043458138971,"CCCCCCCCCCCCCCCCCCC[NH3+]",5.879900000000005,27.64,284.33117676409,1,3,17,1,0,0,1,20,62,0,0,0,0,0,0,0,0,0,0,0,1
"A-5709","O,O,O-Triphenyl phosphorothioate",-6.9546943469,"S=P(Oc1ccccc1)(Oc1ccccc1)Oc1ccccc1","S=P(Oc1ccccc1)(Oc1ccccc1)Oc1ccccc1",33.52559604995234,"S=P(Oc1ccccc1)(Oc1ccccc1)Oc1ccccc1",5.447900000000003,27.69,342.04795197000004,3,0,6,0,4,0,5,23,38,0,3,3,0,0,0,0,0,3,0,0,0
"A-5725","2,4,4-trimethylpentan-2-yl 2,2,3,5-tetramethylhexaneperoxoate 2,4,4-trimethylpentan-2-yl 2,2-diethylhexaneperoxoate 2,4,4-trimethylpentan-2-yl 2,2-dimethyloctaneperoxoate 2,4,4-trimethylpentan-2-yl 2,4-dimethyl-2-(propan-2-yl)pentaneperoxoate 2,4,4-trimethylpentan-2-yl 2-ethyl-2,5-dimethylhexaneperoxoate",-6.9712344191,"CC(C)(C)CCCCC1(C(=O)OC(C)(C)CC(C)(C)C)OO1","CC(C)(C)CCCCC1(C(=O)OC(C)(C)CC(C)(C)C)OO1",20.76673553616856,"CC(C)(C)CCCCC1(C(=O)OC(C)(C)CC(C)(C)C)OO1",5.009000000000005,51.36,314.24570956799994,4,0,7,0,4,0,4,22,56,0,1,0,1,1,0,1,1,0,0,0,0.9444444444444444
"A-5734","1,1,3,3-tetramethylbutyl 2-(ethylperoxy)hexanoate",-5.9495319098,"CCCCC(CC)C(=O)OOC(C)(C)CC(C)(C)C","CCCCC(CC)C(=O)OOC(C)(C)CC(C)(C)C",28.863302672776022,"CCCCC(CC)C(=O)OOC(C)(C)CC(C)(C)C",4.892400000000005,35.53,272.235144884,3,0,8,0,3,0,3,19,51,1,0,0,0,0,0,0,0,0,0,0,0.9375
"A-5736","Cholesterol",-7.1001953639,"CC(C)CCC[C@@H](C)[C@H]1CC[C@H]2[C@@H]3CC=C4C[C@@H](O)CC[C@]4(C)[C@H]3CC[C@@]21C","CC(C)CCC[C@@H](C)[C@H]1CC[C@H]2[C@@H]3CC=C4C[C@@H](O)CC[C@]4(C)[C@H]3CC[C@@]21C",59.14992806628578,"CC(C)CCC[C@@H](C)[C@H]1CC[C@H]2[C@@H]3CC=C4C[C@@H](O)CC[C@]4(C)[C@H]3CC[C@]12C",7.388700000000009,20.23,386.354866092,1,1,5,1,1,0,1,28,74,8,4,0,3,4,0,0,0,0,3,4,0.9259259259259259
"A-5741","2-methylundecane-2-thiol",-7.7118329776,"CC(C)C(C)(C)C(C)(C)C(C)(C)S","CC(C)C(C)(C)C(C)(C)C(C)(C)S",35.579026128460924,"CC(C)C(C)(C)C(C)(C)C(C)(C)S",4.403200000000004,0,202.175521832,0,0,3,1,1,0,1,13,39,0,0,0,0,0,0,0,0,0,0,0,1
"A-5743","2-[(1-amino-4-hydroxy-9,10-dioxo-9,10-dihydroanthracen-2-yl)oxy]ethyl phenyl carbonate",-8.0544153113,"Nc1c(OCCOC(=O)Oc2ccccc2)cc([O-])c2c1C(=O)c1ccccc1C2=O","Nc1c(OCCOC(=O)Oc2ccccc2)cc([O-])c2c1C(=O)c1ccccc1C2=O",86.02464195081743,"Nc1c(OCCOC(=O)Oc2ccccc2)cc([O-])c2c1C(=O)c1ccccc1C2=O",2.712200000000001,127.97999999999999,418.09322543190996,8,2,5,1,8,0,8,31,47,0,4,3,0,1,0,0,0,3,0,1,0.08695652173913043
"A-5745","2,2-bis(hydroxymethyl)propane-1,3-diyl didocosanoate",-8.3487503358,"CCCCCCCCCCCCCCCCCCCCCC(=O)OCC(CO)(CO)COC(=O)CCCCCCCCCCCCCCCCCCCCC","CCCCCCCCCCCCCCCCCCCCCC(=O)OCC(CO)(CO)COC(=O)CCCCCCCCCCCCCCCCCCCCC",-38.25385996860474,"CCCCCCCCCCCCCCCCCCCCCC(=O)OCC(CO)(CO)COC(=O)CCCCCCCCCCCCCCCCCCCCC",14.687599999999966,93.06,780.7206907919998,6,2,46,2,6,0,6,55,151,0,0,0,0,0,0,0,0,0,0,0,0.9591836734693877
"A-5747","14h-Anthra[2,1,9-mna]thioxanthen-14-one",-7.9828073074,"O=c1c2ccccc2c2ccc3sc4ccccc4c4ccc1c2c34","O=C1c2ccccc2-c2ccc3c4c(ccc1c24)-c1ccccc1S3",78.34560048983766,"O=c1c2ccccc2c2ccc3c4c(ccc1c24)c1ccccc1s3",6.182800000000002,17.07,336.060886004,1,0,0,0,2,0,2,25,37,0,6,4,0,2,0,0,1,4,0,1,0
"A-5749","propane-2,2-diylbis(4,1-phenyleneoxyethane-2,1-diyl) diacetate",-8.0585030279,"CC(=O)OCCOc1ccc(C(C)(C)c2ccc(OCCOC(C)=O)cc2)cc1","CC(=O)OCCOc1ccc(C(C)(C)c2ccc(OCCOC(C)=O)cc2)cc1",48.36017249384888,"CC(=O)OCCOc1ccc(C(C)(C)c2ccc(OCCOC(=O)C)cc2)cc1",3.8963000000000028,71.06,400.18858861599995,6,0,10,0,6,0,6,29,57,0,2,2,0,0,0,0,0,2,0,0,0.391304347826087
"A-5750","3-hydroxy-4-[(E)-2-[2-methoxy-5-methyl-4-(methylsulfamoyl)phenyl]diazen-1-yl]-N-(2-oxo-2,3-dihydro-1H-1,3-benzodiazol-5-yl)naphthalene-2-carboxamide",-8.2171679788,"CNS(=O)(=O)c1cc(OC)c(NN=C2C(=O)C(C(=O)Nc3ccc4[nH]c(=O)[nH]c4c3)=Cc3ccccc32)cc1C","CNS(=O)(=O)c1cc(OC)c(NN=C2C(=O)C(C(=O)Nc3ccc4c(c3)NC(=O)N4)=Cc3ccccc32)cc1C",73.75354104674707,"CNS(=O)(=O)c1cc(OC)c(NN=C2C(=O)C(=Cc3ccccc23)C(=O)Nc2ccc3c(c2)[nH]c(=O)[nH]3)cc1C",3.2901200000000017,167.09,560.147803488,12,5,7,5,8,3,13,40,64,0,5,3,0,2,0,0,1,3,0,1,0.1111111111111111
"A-5754","1-[(E)-2-(4-methyl-2-nitrophenyl)diazen-1-yl]naphthalen-2-ol",-7.9690613395,"Cc1ccc(NN=C2C(=O)C=Cc3ccccc32)c([N+](=O)[O-])c1","Cc1ccc(NN=C2C(=O)C=Cc3ccccc32)c([N+](=O)[O-])c1",83.58497023574682,"Cc1ccc(NN=C2C(=O)C=Cc3ccccc23)c([N+](=O)[O-])c1",3.3153200000000016,84.6,307.09569127599997,6,1,3,1,5,0,6,23,36,0,3,2,0,1,0,0,0,2,0,1,0.058823529411764705
"A-5755","butyl 2-[(E)-2-{2-hydroxy-3-[(2-oxo-2,3-dihydro-1H-1,3-benzodiazol-5-yl)carbamoyl]naphthalen-1-yl}diazen-1-yl]benzoate",-8.2138073561,"CCCCOC(=O)c1ccccc1NN=C1C(=O)C(C(=O)Nc2ccc3[nH]c(=O)[nH]c3c2)=Cc2ccccc21","CCCCOC(=O)c1ccccc1NN=C1C(=O)C(C(=O)Nc2ccc3c(c2)NC(=O)N3)=Cc2ccccc21",79.14522179015671,"CCCCOC(=O)c1ccccc1NN=C1C(=O)C(=Cc2ccccc12)C(=O)Nc1ccc2c(c1)[nH]c(=O)[nH]2",5.021900000000003,137.98999999999998,523.1855689,10,4,8,4,7,3,10,39,64,0,5,3,0,2,0,0,1,3,0,1,0.13793103448275862
"A-5758","1,2,4-tris(2-ethylhexyl) benzene-1,2,4-tricarboxylate",-8.2520983426,"CCCCC(CC)COC(=O)c1ccc(C(=O)OCC(CC)CCCC)c(C(=O)OCC(CC)CCCC)c1","CCCCC(CC)COC(=O)c1ccc(C(=O)OCC(CC)CCCC)c(C(=O)OCC(CC)CCCC)c1",1.5375922584521362,"CCCCC(CC)COC(=O)c1ccc(C(=O)OCC(CC)CCCC)c(C(=O)OCC(CC)CCCC)c1",8.806200000000006,78.90000000000002,546.392039448,6,0,21,0,6,0,6,39,93,3,1,1,0,0,0,0,0,1,0,0,0.7272727272727273
"A-5759","4-[(E)-2-(4-carbamoylphenyl)diazen-1-yl]-3-hydroxy-N-(2-methoxyphenyl)naphthalene-2-carboxamide",-8.1667842337,"COc1ccccc1NC(=O)C1=Cc2ccccc2C(=NNc2ccc(C(N)=O)cc2)C1=O","COc1ccccc1NC(=O)C1=Cc2ccccc2C(=NNc2ccc(C(N)=O)cc2)C1=O",89.75387750969651,"COc1ccccc1NC(=O)C1=Cc2ccccc2C(=NNc2ccc(C(=O)N)cc2)C1=O",3.2151000000000005,122.88,440.14845512,8,4,6,3,6,2,8,33,53,0,4,3,0,1,0,0,0,3,0,1,0.04
"A-5769","2,5-dimethylhexane-2,5-diyl bis[2-(ethylperoxy)hexanoate]",-7.1884960445,"CCCCC(CC)C(=O)OOC(C)(C)CCC(C)(C)OOC(=O)C(CC)CCCC","CCCCC(CC)C(=O)OOC(C)(C)CCC(C)(C)OOC(=O)C(CC)CCCC",49.48712858881899,"CCCCC(CC)C(=O)OOC(C)(C)CCC(C)(C)OOC(=O)C(CC)CCCC",6.706200000000008,71.06,430.32943919199994,6,0,17,0,6,0,6,30,76,2,0,0,0,0,0,0,0,0,0,0,0.9166666666666666
"A-5770","2-tert-butyl-4-[(5-tert-butyl-4-hydroxy-2-methylphenyl)sulfanyl]-5-methylphenol",-7.112066324,"Cc1cc(O)c(C(C)(C)C)cc1Sc1cc(C(C)(C)C)c(O)cc1C","Cc1cc(O)c(C(C)(C)C)cc1Sc1cc(C(C)(C)C)c(O)cc1C",46.528998448361925,"Cc1cc(O)c(C(C)(C)C)cc1Sc1cc(C(C)(C)C)c(O)cc1C",6.4608400000000055,40.46,358.19665119999996,2,2,2,2,3,0,3,25,55,0,2,2,0,0,0,0,0,2,0,0,0.45454545454545453
"A-5786","ethyl 2-cyanoprop-2-enoate",-6.7171397905,"C=C(C#N)C(=O)OCC","C=C(C#N)C(=O)OCC",-25.08862662624644,"C=C(C#N)C(=O)OCC",0.62928,50.09,125.047678464,3,0,2,0,3,0,3,9,16,0,0,0,0,0,0,0,0,0,0,0,0.3333333333333333
"A-5792","1-amino-4-(4-amino-9,10-dioxo-9,10-dihydroanthracen-1-yl)-9,10-dihydroanthracene-9,10-dione",-6.2937105628,"Nc1ccc(-c2ccc(N)c3c2C(=O)c2ccccc2C3=O)c2c1C(=O)c1ccccc1C2=O","Nc1ccc(-c2ccc(N)c3c2C(=O)c2ccccc2C3=O)c2c1C(=O)c1ccccc1C2=O",73.4260396762361,"Nc1ccc(c2ccc(N)c3c2C(=O)c2ccccc2C3=O)c2c1C(=O)c1ccccc1C2=O",4.068800000000002,120.32,444.1110069919999,6,4,1,2,6,0,6,34,50,0,6,4,0,2,0,0,0,4,0,2,0
"A-5801","2-ethylhexyl (2-methylbutan-2-yl)oxy carbonate",-6.0882386806,"CCCCC(CC)COC(=O)OOC(C)(C)CC","CCCCC(CC)COC(=O)OOC(C)(C)CC",14.670451150257733,"CCCCC(CC)COC(=O)OOC(C)(C)CC",4.476200000000004,44.760000000000005,260.198759376,4,0,9,0,4,0,4,18,46,1,0,0,0,0,0,0,0,0,0,0,0.9285714285714286
"A-5803","3-ethoxy-1,1,1,2,3,4,4,5,5,6,6,6-dodecafluoro-2-(trifluoromethyl)hexane",-7.2887340171,"CCOC(F)(C(F)(F)C(F)(F)C(F)(F)F)C(F)(C(F)(F)F)C(F)(F)F","CCOC(F)(C(F)(F)C(F)(F)C(F)(F)F)C(F)(C(F)(F)F)C(F)(F)F",-7.621703004357299,"CCOC(F)(C(F)(F)C(F)(F)C(F)(F)F)C(F)(C(F)(F)F)C(F)(F)F",5.354500000000002,9.23,414.01008808000006,1,0,5,0,1,0,16,25,30,1,0,0,0,0,0,0,0,0,0,0,1
"A-5811","octadecyl 3-(3,5-di-tert-butyl-4-hydroxyphenyl)propanoate",-8.2701498682,"CCCCCCCCCCCCCCCCCCOC(=O)CCc1cc(C(C)(C)C)c(O)c(C(C)(C)C)c1","CCCCCCCCCCCCCCCCCCOC(=O)CCc1cc(C(C)(C)C)c(O)c(C(C)(C)C)c1",6.82705511830107,"CCCCCCCCCCCCCCCCCCOC(=O)CCc1cc(C(C)(C)C)c(O)c(C(C)(C)C)c1",10.724499999999992,46.53,530.469895844,3,1,20,1,3,0,3,38,100,0,1,1,0,0,0,0,0,1,0,0,0.8
"A-5814","2-[(4-{(4-anilinophenyl)[4-(phenylimino)cyclohexa-2,5-dien-1-ylidene]methyl}phenyl)amino]benzenesulfonic acid",-8.3771050883,"O=S(=O)([O-])c1ccccc1N=C1C=CC(=C(c2ccc(Nc3ccccc3)cc2)c2ccc(Nc3ccccc3)cc2)C=C1","O=S(=O)([O-])c1ccccc1N=C1C=CC(=C(c2ccc(Nc3ccccc3)cc2)c2ccc(Nc3ccccc3)cc2)C=C1",138.69250766134985,"O=S(=O)([O-])c1ccccc1N=C1C=CC(=C(c2ccc(Nc3ccccc3)cc2)c2ccc(Nc3ccccc3)cc2)C=C1",8.778500000000001,93.62,594.1856863359101,6,2,8,2,6,0,7,44,72,0,6,5,0,1,0,0,0,5,0,1,0
"A-5817","4,11-diamino-2-[3-(2-methoxyethoxy)propyl]-1H-naphtho[2,3-f]isoindole-1,3,5,10(2H)-tetrone",-8.2650486602,"COCCOCCCn1c(=O)c2c(N)c3c(=O)c4ccccc4c(=O)c3c(N)c2c1=O","COCCOCCCN1C(=O)c2c(N)c3c(c(N)c2C1=O)C(=O)c1ccccc1C3=O",3.427713717614191,"COCCOCCCn1c(=O)c2c(N)c3c(c(N)c2c1=O)c(=O)c1ccccc1c3=O",1.2755,142.02,423.143035392,9,4,7,2,8,2,9,31,52,0,4,2,0,2,0,0,1,2,0,1,0.2727272727272727
"A-5818","1,4-diamino-2,3-diphenoxy-9,10-dihydroanthracene-9,10-dione",-8.2716565948,"Nc1c(Oc2ccccc2)c(Oc2ccccc2)c(N)c2c1C(=O)c1ccccc1C2=O","Nc1c(Oc2ccccc2)c(Oc2ccccc2)c(N)c2c1C(=O)c1ccccc1C2=O",92.84176306150117,"Nc1c(Oc2ccccc2)c(Oc2ccccc2)c(N)c2c1C(=O)c1ccccc1C2=O",5.211000000000004,104.63999999999999,422.12665705599994,6,4,4,2,6,0,6,32,50,0,5,4,0,1,0,0,0,4,0,1,0
"A-5824","8-methylnonyl methacrylate",-6.0559466089,"C=C(C)C(=O)OCCCCCCCC(C)C","C=C(C)C(=O)OCCCCCCCC(C)C",-17.790800949364044,"C=C(C)C(=O)OCCCCCCCC(C)C",4.102300000000004,26.3,226.193280072,2,0,9,0,2,0,2,16,42,0,0,0,0,0,0,0,0,0,0,0,0.7857142857142857
"A-5836","dibenzylbenzene, ar-methyl derivative",-7.179920249,"Cc1cccc(Cc2ccccc2)c1Cc1ccccc1","Cc1cccc(Cc2ccccc2)c1Cc1ccccc1",49.51397665086736,"Cc1cccc(Cc2ccccc2)c1Cc1ccccc1",5.176620000000004,0,272.15650064,0,0,4,0,0,0,0,21,41,0,3,3,0,0,0,0,0,3,0,0,0.14285714285714285
"A-5839","2-[(E)-2-{2-oxo-1-[(2-oxo-2,3-dihydro-1H-1,3-benzodiazol-5-yl)carbamoyl]propyl}diazen-1-yl]benzoic acid",-7.3309014707,"CC(=O)C(N=Nc1ccccc1C(=O)[O-])C(=O)Nc1ccc2[nH]c(=O)[nH]c2c1","CC(=O)C(N=Nc1ccccc1C(=O)[O-])C(=O)Nc1ccc2c(c1)NC(=O)N2",47.37011527554938,"CC(=O)C(N=Nc1ccccc1C(=O)[O-])C(=O)Nc1ccc2c(c1)[nH]c(=O)[nH]2",1.6874999999999998,152.15,380.10004212791,10,3,6,3,7,3,10,28,42,1,3,2,0,1,0,0,1,2,0,0,0.1111111111111111