"ID","Name","Solubility","SMILES Canonical","Smiles (Optimized Geometry)","Energy","Smiles","SlogP","TPSA","ExactMW","NumLipinskiHBA","NumLipinskiHBD","NumRotatableBonds","NumHBD","NumHBA","NumAmideBonds","NumHeteroAtoms","NumHeavyAtoms","NumAtoms","NumStereocenters","NumRings","NumAromaticRings","NumSaturatedRings","NumAliphaticRings","NumAromaticHeterocycles","NumSaturatedHeterocycles","NumAliphaticHeterocycles","NumAromaticCarbocycles","NumSaturatedCarbocycles","NumAliphaticCarbocycles","FractionCSP3"
"B-3380","phosphoric acid, dibutyl 4-ethoxybutyl ester",-2.6468,"CCCCOP(=O)(OCCCC)OCCCCOCC","CCCCOP(=O)(OCCCC)OCCCCOCC",-88.39265545043996,"CCCCOP(=O)(OCCCC)OCCCCOCC",4.561200000000004,53.99000000000001,310.190910722,5,0,15,0,5,0,6,20,51,0,0,0,0,0,0,0,0,0,0,0,1
"B-3381","acrinathrin",-7.4325,"CC1(C)[C@@H](C=CC(=O)OC(C(F)(F)F)C(F)(F)F)[C@H]1C(=O)O[C@H](C#N)c1cccc(Oc2ccccc2)c1","CC1(C)[C@@H](C=CC(=O)OC(C(F)(F)F)C(F)(F)F)[C@H]1C(=O)O[C@H](C#N)c1cccc(Oc2ccccc2)c1",10.036866361877797,"CC1(C)[C@@H](C=CC(=O)OC(C(F)(F)F)C(F)(F)F)[C@H]1C(=O)O[C@H](C#N)c1cccc(Oc2ccccc2)c1",6.451580000000004,85.62000000000002,541.132392092,6,0,8,0,6,0,12,38,59,3,3,2,1,1,0,0,0,2,1,1,0.34615384615384615
"B-3382","tribenuron-methyl",-3.8981,"COC(=O)c1ccccc1S(=O)(=O)NC(=O)N(C)c1nc(C)nc(OC)n1","COC(=O)c1ccccc1S(=O)(=O)NC(=O)N(C)c1nc(C)nc(OC)n1",-272.50892208191686,"COC(=O)c1ccccc1S(=O)(=O)NC(=O)N(C)c1nc(C)nc(OC)n1",0.5099199999999997,140.68,395.0899542640001,11,1,5,1,9,2,12,27,44,0,2,2,0,0,1,0,0,1,0,0,0.26666666666666666
"B-3385","phthalic acid, 4-nitro-, 2-methyl ester",-1.721,"COC(=O)c1cc([N+](=O)[O-])ccc1C(=O)[O-]","COC(=O)c1cc([N+](=O)[O-])ccc1C(=O)[O-]",4.731748659466945,"COC(=O)c1cc([N+](=O)[O-])ccc1C(=O)[O-]",-0.2551000000000001,109.57,224.02006049191002,7,0,3,0,6,0,7,16,22,0,1,1,0,0,0,0,0,1,0,0,0.1111111111111111
"B-3386","undecanoic acid, 11-[(6-aminohexyl)amino]-",-2.3017,"[NH3+]CCCCCC[NH2+]CCCCCCCCCCC(=O)[O-]","[NH3+]CCCCCC[NH2+]CCCCCCCCCCC(=O)[O-]",-140.43865276935688,"[NH3+]CCCCCC[NH2+]CCCCCCCCCCC(=O)[O-]",0.6129000000000016,84.38,301.28495484409,4,5,17,2,2,0,4,21,58,0,0,0,0,0,0,0,0,0,0,0,0.9411764705882353
"B-3387","pefurazoate",-2.8919,"C=CCCCOC(=O)C(CC)N(Cc1ccco1)C(=O)n1ccnc1","C=CCCCOC(=O)C(CC)N(Cc1ccco1)C(=O)n1ccnc1",22.724452228297054,"C=CCCCOC(=O)C(CC)N(Cc1ccco1)C(=O)n1ccnc1",3.2344000000000017,77.57000000000001,345.16885621600005,7,0,9,0,6,1,7,25,48,1,2,2,0,0,2,0,0,0,0,0,0.3888888888888889
"B-3389","pteridine, 2-methoxy-",-1.113,"COc1ncc2nccnc2n1","COc1ncc2nccnc2n1",27.24359702107283,"COc1ncc2nccnc2n1",0.42839999999999984,60.790000000000006,162.054160812,5,0,1,0,5,0,5,12,18,0,2,2,0,0,2,0,0,0,0,0,0.14285714285714285
"B-3390","2(1h)-pteridinone, 1-methyl-",-1.3713,"Cn1c(=O)ncc2nccnc21","CN1C(=O)N=Cc2nccnc21",17.26382322502797,"Cn1c(=O)ncc2nccnc12",0.46530000000000005,58.45,162.054160812,5,0,0,0,3,2,5,12,18,0,2,1,0,1,1,0,1,0,0,0,0.14285714285714285
"B-3391","hexanamide, n-(aminocarbonyl)-2-ethylidene-",-2.7883,"CC=C(CCCC)C(=O)NC(N)=O","CC=C(CCCC)C(=O)NC(N)=O",-14.31396861710217,"CC=C(CCCC)C(=O)NC(=O)N",1.3177999999999999,72.19,184.121177752,4,3,4,2,2,3,4,13,29,0,0,0,0,0,0,0,0,0,0,0,0.5555555555555556
"B-3394","4-pteridinol, 6,7-diethyl-",-1.9122,"CCc1nc2ncnc(O)c2nc1CC","CCc1nc2ncnc(O)c2nc1CC",51.5207021538243,"CCc1nc2ncnc(O)c2nc1CC",1.2501999999999998,71.79,204.101111004,5,1,2,1,5,0,5,15,27,0,2,2,0,0,2,0,0,0,0,0,0.4
"B-3396","flumioxazin",-5.2966,"C#CCN1C(=O)COc2cc(F)c(N3C(=O)C4=C(CCCC4)C3=O)cc21","C#CCN1C(=O)COc2cc(F)c(N3C(=O)C4=C(CCCC4)C3=O)cc21",18.282227670961102,"C#CCN1C(=O)COc2cc(F)c(N3C(=O)C4=C(CCCC4)C3=O)cc12",1.9281,66.92,354.10158518000003,6,0,2,0,4,3,7,26,41,0,4,1,0,3,0,0,2,1,0,1,0.3157894736842105
"B-3397","hexanedioic acid, 2,2-diphenyl-",-3.1737,"O=C([O-])CCCC(C(=O)[O-])(c1ccccc1)c1ccccc1","O=C([O-])CCCC(C(=O)[O-])(c1ccccc1)c1ccccc1",136.86038306082042,"O=C([O-])CCCC(C(=O)[O-])(c1ccccc1)c1ccccc1",0.6428,80.25999999999999,296.10595615182,4,0,7,0,4,0,4,22,38,0,2,2,0,0,0,0,0,2,0,0,0.2222222222222222
"B-3398","Imazapic",-2.0911,"Cc1cnc(C2=[NH+]C(C)(C(C)C)C(=O)N2)c(C(=O)[O-])c1","Cc1cnc(C2=[NH+]C(C)(C(C)C)C(=O)N2)c(C(=O)[O-])c1",-75.07538964844575,"Cc1cnc(C2=[NH+]C(C)(C(C)C)C(=O)N2)c(C(=O)[O-])c1",-1.874779999999998,96.09,275.126991404,6,2,3,2,4,1,6,20,37,1,2,1,0,1,1,0,1,0,0,0,0.42857142857142855
"B-3399","2-benzofurancarboxylic acid, 3-methoxy-",-2.8857,"COc1c(C(=O)[O-])oc2ccccc12","COc1c(C(=O)[O-])oc2ccccc12",54.564227779283854,"COc1c(C(=O)[O-])oc2ccccc12",0.8049,62.5,191.03498228391,4,0,2,0,4,0,4,14,21,0,2,2,0,0,1,0,0,1,0,0,0.1
"B-3404","valeric acid, 4-(benzamido)-",-1.6917,"CC(CCC(=O)[O-])NC(=O)c1ccccc1","CC(CCC(=O)[O-])NC(=O)c1ccccc1",5.152290247442051,"CC(CCC(=O)[O-])NC(=O)c1ccccc1",0.3349999999999998,69.22999999999999,220.09791688791,4,1,5,1,3,1,4,16,30,1,1,1,0,0,0,0,0,1,0,0,0.3333333333333333
"B-3406","acetamide, 2-(benzoyloxy)-n-methyl-",-1.7178,"CNC(=O)COC(=O)c1ccccc1","CNC(=O)COC(=O)c1ccccc1",12.512833342341029,"CNC(=O)COC(=O)c1ccccc1",0.5893999999999995,55.4,193.073893212,4,1,3,1,3,1,4,14,25,0,1,1,0,0,0,0,0,1,0,0,0.2
"B-3407","acetamide, 2-(benzoyloxy)-n-propyl-",-2.5387,"CCCNC(=O)COC(=O)c1ccccc1","CCCNC(=O)COC(=O)c1ccccc1",12.985512823732773,"CCCNC(=O)COC(=O)c1ccccc1",1.3696,55.4,221.10519334,4,1,5,1,3,1,4,16,31,0,1,1,0,0,0,0,0,1,0,0,0.3333333333333333
"B-3408","acetamide, 2-(benzoyloxy)-n-(1,1-dimethylethyl)-",-2.8665,"CC(C)(C)NC(=O)COC(=O)c1ccccc1","CC(C)(C)NC(=O)COC(=O)c1ccccc1",14.134341839819653,"CC(C)(C)NC(=O)COC(=O)c1ccccc1",1.7581,55.4,235.120843404,4,1,3,1,3,1,4,17,34,0,1,1,0,0,0,0,0,1,0,0,0.38461538461538464
"B-3409","acetamide, 2-[[(benzoyloxy)acetyl]amino]-",-1.4983,"NC(=O)CNC(=O)COC(=O)c1ccccc1","NC(=O)CNC(=O)COC(=O)c1ccccc1",22.753597293265035,"NC(=O)CNC(=O)COC(=O)c1ccccc1",-0.5550999999999997,98.49000000000001,236.079706864,6,3,5,2,4,2,6,17,29,0,1,1,0,0,0,0,0,1,0,0,0.18181818181818182
"B-3410","acetamide, 2-(benzoyloxy)-n,n-dimethyl-",-1.372,"CN(C)C(=O)COC(=O)c1ccccc1","CN(C)C(=O)COC(=O)c1ccccc1",9.464003961182772,"CN(C)C(=O)COC(=O)c1ccccc1",0.9315999999999999,46.61,207.089543276,4,0,3,0,3,1,4,15,28,0,1,1,0,0,0,0,0,1,0,0,0.2727272727272727
"B-3411","acetamide, 2-(benzoyloxy)-n,n-dipropyl-",-2.3791,"CCCN(CCC)C(=O)COC(=O)c1ccccc1","CCCN(CCC)C(=O)COC(=O)c1ccccc1",10.812636611657586,"CCCN(CCC)C(=O)COC(=O)c1ccccc1",2.492000000000001,46.61,263.152143532,4,0,7,0,3,1,4,19,40,0,1,1,0,0,0,0,0,1,0,0,0.4666666666666667
"B-3412","acetamide, 2-(benzoyloxy)-n,n-dibutyl-",-3.5614,"CCCCN(CCCC)C(=O)COC(=O)c1ccccc1","CCCCN(CCCC)C(=O)COC(=O)c1ccccc1",10.467492287809582,"CCCCN(CCCC)C(=O)COC(=O)c1ccccc1",3.2722000000000024,46.61,291.18344366,4,0,9,0,3,1,4,21,46,0,1,1,0,0,0,0,0,1,0,0,0.5294117647058824
"B-3413","acetamide, 2-(benzoyloxy)-n,n-bis(2-propenyl)-",-2.5626,"C=CCN(CC=C)C(=O)COC(=O)c1ccccc1","C=CCN(CC=C)C(=O)COC(=O)c1ccccc1",-9.939432478404635,"C=CCN(CC=C)C(=O)COC(=O)c1ccccc1",2.044,46.61,259.120843404,4,0,7,0,3,1,4,19,36,0,1,1,0,0,0,0,0,1,0,0,0.2
"B-3414","glycine, n-[(benzoyloxy)acetyl]-n-methyl-",-2.254,"CN(CC(=O)[O-])C(=O)COC(=O)c1ccccc1","CN(CC(=O)[O-])C(=O)COC(=O)c1ccccc1",63.68327070906751,"CN(CC(=O)[O-])C(=O)COC(=O)c1ccccc1",-0.948299999999999,86.74000000000001,250.07209606391,6,0,5,0,5,1,6,18,30,0,1,1,0,0,0,0,0,1,0,0,0.25
"B-3415","piperidine, 1-[(benzoyloxy)acetyl]-",-2.5011,"O=C(OCC(=O)N1CCCCC1)c1ccccc1","O=C(OCC(=O)N1CCCCC1)c1ccccc1",17.58617059428605,"O=C(OCC(=O)N1CCCCC1)c1ccccc1",1.8558999999999997,46.61000000000001,247.120843404,4,0,3,0,3,1,4,18,35,0,2,1,1,1,0,1,1,1,0,0,0.42857142857142855
"B-3416","morpholine, 4-[(benzoyloxy)acetyl]-",-1.7734,"O=C(OCC(=O)N1CCOCC1)c1ccccc1","O=C(OCC(=O)N1CCOCC1)c1ccccc1",56.24129076080907,"O=C(OCC(=O)N1CCOCC1)c1ccccc1",0.7021999999999995,55.84,249.10010796,5,0,3,0,4,1,5,18,33,0,2,1,1,1,0,1,1,1,0,0,0.38461538461538464
"B-3417","butanoic acid, 2-(formylamino)-",-0.5918,"CCC(NC=O)C(=O)[O-]","CCC(NC=O)C(=O)[O-]",29.429435564980935,"CCC(NC=O)C(=O)[O-]",-1.739099999999999,69.23,130.05096669591,4,1,4,1,3,1,4,9,17,1,0,0,0,0,0,0,0,0,0,0,0.6
"B-3419","benzenesulfonamide, 4-[(2-hydroxyethyl)thio]-",-1.8239,"NS(=O)(=O)c1ccc(SCCO)cc1","NS(=O)(=O)c1ccc(SCCO)cc1",18.19463139452443,"NS(=O)(=O)c1ccc(SCCO)cc1",0.4184000000000002,80.39,233.018035212,4,3,4,2,4,0,6,14,25,0,1,1,0,0,0,0,0,1,0,0,0.25
"B-3420","benzenesulfonamide, 4-[(3-hydroxypropyl)thio]-",-2.2472,"NS(=O)(=O)c1ccc(SCCCO)cc1","NS(=O)(=O)c1ccc(SCCCO)cc1",9.785242558641585,"NS(=O)(=O)c1ccc(SCCCO)cc1",0.8085000000000002,80.39,247.033685276,4,3,5,2,4,0,6,15,28,0,1,1,0,0,0,0,0,1,0,0,0.3333333333333333
"B-3421","benzenesulfonamide, 4-[(5-hydroxypentyl)thio]-",-2.6618,"NS(=O)(=O)c1ccc(SCCCCCO)cc1","NS(=O)(=O)c1ccc(SCCCCCO)cc1",13.711384894232872,"NS(=O)(=O)c1ccc(SCCCCCO)cc1",1.5887000000000002,80.39,275.064985404,4,3,7,2,4,0,6,17,34,0,1,1,0,0,0,0,0,1,0,0,0.45454545454545453
"B-3422","hexanedioic acid, 2,5-dihydroxy-2,5-dimethyl-",-0.8372,"CC(O)(CCC(C)(O)C(=O)[O-])C(=O)[O-]","CC(O)(CCC(C)(O)C(=O)[O-])C(=O)[O-]",142.5518534342403,"CC(O)(CCC(C)(O)C(=O)[O-])C(=O)[O-]",-3.231599999999998,120.72,204.06448526382002,6,2,5,2,6,0,6,14,26,2,0,0,0,0,0,0,0,0,0,0,0.75
"B-3423","4-pyrimidinamine, 5-ethyl-2,6-dipropyl-",-2.5132,"CCCc1nc(N)c(CC)c(CCC)n1","CCCc1nc(N)c(CC)c(CCC)n1",-19.059654035918967,"CCCc1nc(N)c(CC)c(CCC)n1",2.526200000000001,51.8,207.17354767199998,3,2,5,1,3,0,3,15,36,0,1,1,0,0,1,0,0,0,0,0,0.6666666666666666