"ID","Name","Solubility","SMILES Canonical","Smiles (Optimized Geometry)","Energy","Smiles","SlogP","TPSA","ExactMW","NumLipinskiHBA","NumLipinskiHBD","NumRotatableBonds","NumHBD","NumHBA","NumAmideBonds","NumHeteroAtoms","NumHeavyAtoms","NumAtoms","NumStereocenters","NumRings","NumAromaticRings","NumSaturatedRings","NumAliphaticRings","NumAromaticHeterocycles","NumSaturatedHeterocycles","NumAliphaticHeterocycles","NumAromaticCarbocycles","NumSaturatedCarbocycles","NumAliphaticCarbocycles","FractionCSP3"
"B-1769","l-valine, n-glycyl-",0.4579,"CC(C)C(NC(=O)C[NH3+])C(=O)[O-]","CC(C)C(NC(=O)C[NH3+])C(=O)[O-]",-74.37129360083095,"CC(C)C(NC(=O)C[NH3+])C(=O)[O-]",-2.8809999999999985,96.87,174.100442308,5,4,4,2,3,1,5,12,26,1,0,0,0,0,0,0,0,0,0,0,0.7142857142857143
"B-1770","hexanediamide, n,n'-bis(2-hydroxyethyl)-",0.4121,"O=C(CCCCC(=O)NCCO)NCCO","O=C(CCCCC(=O)NCCO)NCCO",-13.577463337741092,"O=C(CCCCC(=O)NCCO)NCCO",-1.2361999999999984,98.66000000000001,232.14230712,6,4,9,4,4,2,6,16,36,0,0,0,0,0,0,0,0,0,0,0,0.8
"B-1776","siduron",-4.1108,"CC1CCCCC1NC(=O)Nc1ccccc1","CC1CCCCC1NC(=O)Nc1ccccc1",7.088579461561589,"CC1CCCCC1NC(=O)Nc1ccccc1",3.386800000000001,41.13,232.15756326,3,2,2,2,1,2,3,17,37,2,2,1,1,1,0,0,0,1,1,1,0.5
"B-1779","2-propenamide, 3-(2-nitrophenyl)-",-1.2837,"NC(=O)C=Cc1ccccc1[N+](=O)[O-]","NC(=O)C=Cc1ccccc1[N+](=O)[O-]",35.044354350811176,"NC(=O)C=Cc1ccccc1[N+](=O)[O-]",1.0933000000000002,86.23,192.053492116,5,2,3,1,3,1,5,14,22,0,1,1,0,0,0,0,0,1,0,0,0
"B-1780","1h-purine, 6-methyl-",0.1735,"Cc1ncnc2nc[nH]c12","Cc1ncnc2nc[nH]c12",-42.85606241974802,"Cc1ncnc2nc[nH]c12",0.6613199999999999,54.46,134.059246192,4,1,0,1,3,0,4,10,16,0,2,2,0,0,2,0,0,0,0,0,0.16666666666666666
"B-1781","butylate",-3.684,"CCSC(=O)N(CC(C)C)CC(C)C","CCSC(=O)N(CC(C)C)CC(C)C",-45.19724446741989,"CCSC(=O)N(CC(C)C)CC(C)C",3.4735000000000023,20.310000000000002,217.150035356,2,0,5,0,2,1,3,14,37,0,0,0,0,0,0,0,0,0,0,0,0.9090909090909091
"B-1782","4-imidazolidinone, 3-phenyl-2-thioxo-",-3.2425,"O=C1CNC(=S)N1c1ccccc1","O=C1CNC(=S)N1c1ccccc1",12.560184712134944,"O=C1CNC(=S)N1c1ccccc1",0.9077000000000003,32.34,192.035733876,3,1,1,1,2,1,4,13,21,0,2,1,1,1,0,1,1,1,0,0,0.1111111111111111
"B-1783","n-decylamine",-2.4564,"CCCCCCCCCC[NH3+]","CCCCCCCCCC[NH3+]",-0.7617050766627143,"CCCCCCCCCC[NH3+]",2.3689999999999998,27.64,158.19032618808998,1,3,8,1,0,0,1,11,35,0,0,0,0,0,0,0,0,0,0,0,1
"B-1784","ethyl b-phenylpropionate",-2.9086,"CCOC(=O)CCc1ccccc1","CCOC(=O)CCc1ccccc1",-2.8145537708642374,"CCOC(=O)CCc1ccccc1",2.1822999999999997,26.3,178.099379688,2,0,4,0,2,0,2,13,27,0,1,1,0,0,0,0,0,1,0,0,0.36363636363636365
"B-1786","aminocarb",-2.3572,"CNC(=O)Oc1ccc(N(C)C)c(C)c1","CNC(=O)Oc1ccc(N(C)C)c(C)c1",10.231223966391763,"CNC(=O)Oc1ccc(N(C)C)c(C)c1",1.77922,41.57,208.121177752,4,1,2,1,3,1,4,15,31,0,1,1,0,0,0,0,0,1,0,0,0.36363636363636365
"B-1787","methiocarb",-3.9214,"CNC(=O)Oc1cc(C)c(SC)c(C)c1","CNC(=O)Oc1cc(C)c(SC)c(C)c1",4.443822630618948,"CNC(=O)Oc1cc(C)c(SC)c(C)c1",2.743540000000001,38.33,225.08234972,3,1,2,1,3,1,4,15,30,0,1,1,0,0,0,0,0,1,0,0,0.36363636363636365
"B-1788","propylcyclopentane",-4.7404,"CCCC1CCCC1","CCCC1CCCC1",6.989493928046346,"CCCC1CCCC1",2.976700000000002,0,112.12520051199999,0,0,2,0,0,0,0,8,24,0,1,0,1,1,0,0,0,0,1,1,1
"B-1791","diethyl pimelate",-2.0408,"CCOC(=O)CCCCCC(=O)OCC","CCOC(=O)CCCCCC(=O)OCC",-21.980496768101638,"CCOC(=O)CCCCCC(=O)OCC",2.0631,52.60000000000001,216.13615912,4,0,8,0,4,0,4,15,35,0,0,0,0,0,0,0,0,0,0,0,0.8181818181818182
"B-1792","diethyl suberate",-2.5304,"CCOC(=O)CCCCCCC(=O)OCC","CCOC(=O)CCCCCCC(=O)OCC",-22.112856872592715,"CCOC(=O)CCCCCCC(=O)OCC",2.4532000000000007,52.60000000000001,230.151809184,4,0,9,0,4,0,4,16,38,0,0,0,0,0,0,0,0,0,0,0,0.8333333333333334
"B-1796","2,4-dihydroxyazobenzene",-3.0299,"O=C1C=CC(=NNc2ccccc2)C([O-])=C1","O=C1C=CC(=NNc2ccccc2)C([O-])=C1",81.04562907145306,"O=C1C=CC(=NNc2ccccc2)C(=C1)[O-]",0.8375999999999999,64.52,213.06695110791,4,1,2,1,4,0,4,16,25,0,2,1,0,1,0,0,0,1,0,1,0
"B-1797","dl-allothreonine, o-methyl-",0.4853,"COC(C)C([NH3+])C(=O)[O-]","COC(C)C([NH3+])C(=O)[O-]",-79.32814754043466,"COC(C)C([NH3+])C(=O)[O-]",-2.6182999999999987,77,133.073893212,4,3,3,1,3,0,4,9,20,2,0,0,0,0,0,0,0,0,0,0,0.8
"B-1799","phenol, 4,4'-(3-methylbutylidene)bis-",-3.3674,"CC(C)CC(c1ccc(O)cc1)c1ccc(O)cc1","CC(C)CC(c1ccc(O)cc1)c1ccc(O)cc1",33.43017130801784,"CC(C)CC(c1ccc(O)cc1)c1ccc(O)cc1",4.275800000000004,40.46,256.14632988,2,2,4,2,2,0,2,19,39,0,2,2,0,0,0,0,0,2,0,0,0.29411764705882354
"B-1800","pentanedioic acid, 2,4-dimethyl-",-0.4564,"C[C@@H](C[C@@H](C)C(=O)[O-])C(=O)[O-]","C[C@@H](C[C@@H](C)C(=O)[O-])C(=O)[O-]",68.96835138368667,"C[C@@H](C[C@@H](C)C(=O)[O-])C(=O)[O-]",-1.8514999999999984,80.25999999999999,158.05900595982,4,0,4,0,4,0,4,11,21,2,0,0,0,0,0,0,0,0,0,0,0.7142857142857143
"B-1803","flumethasone",-5.6133,"C[C@@H]1C[C@H]2[C@@H]3C[C@H](F)C4=CC(=O)C=C[C@]4(C)[C@@]3(F)[C@@H](O)C[C@]2(C)[C@@]1(O)C(=O)CO","C[C@@H]1C[C@H]2[C@@H]3C[C@H](F)C4=CC(=O)C=C[C@]4(C)[C@@]3(F)[C@@H](O)C[C@]2(C)[C@@]1(O)C(=O)CO",104.84863757365139,"C[C@@H]1C[C@H]2[C@@H]3C[C@H](F)C4=CC(=O)C=C[C@]4(C)[C@@]3(F)[C@@H](O)C[C@]2(C)[C@@]1(O)C(=O)CO",1.8436999999999997,94.83,410.1904804359999,5,3,2,3,5,0,7,29,57,9,4,0,3,4,0,0,0,0,3,4,0.7272727272727273
"B-1804","1,3-benzenediol, 4-cyclohexyl-",-2.5763,"Oc1ccc(C2CCCCC2)c(O)c1","Oc1ccc(C2CCCCC2)c(O)c1",23.18494733866351,"Oc1ccc(C2CCCCC2)c(O)c1",3.145500000000001,40.46,192.115029752,2,2,1,2,2,0,2,14,30,0,2,1,1,1,0,0,0,1,1,1,0.5
"B-1807","4-ethylamino-6-isopropylamino-s-triazin-2-ol",-4.5241,"CCNc1nc(=O)nc(NC(C)C)[nH]1","CCNC1=NC(=O)N=C(NC(C)C)N1",-112.99725916807898,"CCNc1nc(=O)nc(NC(C)C)[nH]1",0.029099999999999737,77.88,197.12766009999999,6,3,2,3,4,2,6,14,29,0,1,0,0,1,0,0,1,0,0,0,0.625
"B-1810","lenacil",-4.5916,"O=c1[nH]c2c(c(=O)n1C1CCCCC1)CCC2","O=C1NC2=C(CCC2)C(=O)N1C1CCCCC1",-36.59260604099487,"O=c1[nH]c2c(CCC2)c(=O)n1C1CCCCC1",2.3089000000000004,49.410000000000004,234.136827816,4,1,1,1,2,3,4,17,35,0,3,0,1,3,0,0,1,0,1,2,0.6923076923076923
"B-1813","naphthalene, 2-(2-methylpropoxy)-",-5.2117,"CC(C)COc1ccc2ccccc2c1","CC(C)COc1ccc2ccccc2c1",33.71054753565911,"CC(C)COc1ccc2ccccc2c1",3.8746000000000027,9.23,200.120115132,1,0,3,0,1,0,1,15,31,0,2,2,0,0,0,0,0,2,0,0,0.2857142857142857
"B-1816","1h-pyrrole-2-carboxylic acid, 3,5-dimethyl-, eth",-2.6212,"CCOC(=O)c1[nH]c(C)cc1C","CCOC(=O)c1[nH]c(C)cc1C",-23.213985291725105,"CCOC(=O)c1[nH]c(C)cc1C",1.80824,42.09,167.094628656,3,1,2,1,2,0,3,12,25,0,1,1,0,0,1,0,0,0,0,0,0.4444444444444444
"B-1817","1,3-benzenedicarboxylic acid, 4-methoxy-",-3.1165,"COc1ccc(C(=O)[O-])cc1C(=O)[O-]","COc1ccc(C(=O)[O-])cc1C(=O)[O-]",96.03689869648977,"COc1ccc(C(=O)[O-])cc1C(=O)[O-]",-1.5777999999999999,89.49000000000001,194.02262045182002,5,0,3,0,5,0,5,14,20,0,1,1,0,0,0,0,0,1,0,0,0.1111111111111111
"B-1818","1,2-dimethylcyclohexane (cis)",-4.2719,"C[C@H]1CCCC[C@H]1C","C[C@H]1CCCC[C@H]1C",11.482385255054425,"C[C@H]1CCCC[C@H]1C",2.832600000000001,0,112.12520051199999,0,0,0,0,0,0,0,8,24,2,1,0,1,1,0,0,0,0,1,1,1
"B-1821","1-naphthalenecarboxylic acid, 8-nitro-",-2.7501,"O=C([O-])c1cccc2cccc([N+](=O)[O-])c12","O=C([O-])c1cccc2cccc([N+](=O)[O-])c12",52.530511967815315,"O=C([O-])c1cccc2cccc([N+](=O)[O-])c12",1.1115,83.27,216.03023125191,5,0,2,0,4,0,5,16,22,0,2,2,0,0,0,0,0,2,0,0,0
"B-1822","4-methyloctane",-6.0474,"CCCCC(C)CCC","CCCCC(C)CCC",3.905208757795301,"CCCCC(C)CCC",3.6128000000000027,0,128.15650064,0,0,5,0,0,0,0,9,29,1,0,0,0,0,0,0,0,0,0,0,1
"B-1824","naphthalene, 1-methoxy-",-4.1992,"COc1cccc2ccccc12","COc1cccc2ccccc12",34.56945178682803,"COc1cccc2ccccc12",2.8484000000000007,9.23,158.07316494,1,0,1,0,1,0,1,12,22,0,2,2,0,0,0,0,0,2,0,0,0.09090909090909091
"B-1826","pentane, 3,3-bis(ethylsulfonyl)-",-2.0625,"CCC(CC)(S(=O)(=O)CC)S(=O)(=O)CC","CCC(CC)(S(=O)(=O)CC)S(=O)(=O)CC",-58.91322618261928,"CCC(CC)(S(=O)(=O)CC)S(=O)(=O)CC",1.3721,68.28,256.08030112,4,0,6,0,4,0,6,15,35,0,0,0,0,0,0,0,0,0,0,0,1
"B-1829","2-cyclohexen-1-one, oxime, (z)-",-0.9667,"ON=C1C=CCCC1","ON=C1C=CCCC1",13.378478619532306,"ON=C1C=CCCC1",1.5567,32.59,111.068413908,2,1,0,1,2,0,2,8,17,0,1,0,0,1,0,0,0,0,0,1,0.5
"B-1831","m-aminobenzonitrile",-1.1693,"N#Cc1cccc(N)c1","N#Cc1cccc(N)c1",11.663338267993238,"N#Cc1cccc(N)c1",1.14048,49.81,118.053098192,2,2,0,1,2,0,2,9,15,0,1,1,0,0,0,0,0,1,0,0,0
"B-1832","nonanonitrile",-3.2987,"CCCCCCCCC#N","CCCCCCCCC#N",-0.572256977253566,"CCCCCCCCC#N",3.260580000000002,23.79,139.136099544,1,0,6,0,1,0,1,10,27,0,0,0,0,0,0,0,0,0,0,0,0.8888888888888888
"B-1834","2-phenethylisothiocyanate",-3.1714,"S=C=NCCc1ccccc1","S=C=NCCc1ccccc1",14.535350062894997,"S=C=NCCc1ccccc1",2.3319,12.36,163.045570288,1,0,3,0,2,0,2,11,20,0,1,1,0,0,0,0,0,1,0,0,0.2222222222222222
"B-1836","1h-purine, 8-(trifluoromethyl)-",-0.4505,"FC(F)(F)c1nc2ncncc2[nH]1","FC(F)(F)c1nc2ncncc2[nH]1",-38.11612226555346,"FC(F)(F)c1nc2ncncc2[nH]1",1.3716999999999997,54.46,188.030980756,4,1,0,1,3,0,7,13,16,0,2,2,0,0,2,0,0,0,0,0,0.16666666666666666
"B-1837","5-phenylpentanoic acid",-2.4657,"O=C([O-])CCCCc1ccccc1","O=C([O-])CCCCc1ccccc1",16.207325857157702,"O=C([O-])CCCCc1ccccc1",1.1492999999999998,40.129999999999995,177.09210323591,2,0,5,0,2,0,2,13,26,0,1,1,0,0,0,0,0,1,0,0,0.36363636363636365
"B-1840","prothoate",-2.0575,"CCOP(=S)(OCC)SCC(=O)NC(C)C","CCOP(=S)(OCC)SCC(=O)NC(C)C",-84.77939382702384,"CCOP(=S)(OCC)SCC(=O)NC(C)C",2.5417000000000005,47.56,285.06222213,4,1,8,1,5,1,7,16,36,0,0,0,0,0,0,0,0,0,0,0,0.8888888888888888
"B-1841","vamidothion",0.5416,"CNC(=O)CCSCCSP(=O)(OC)OC","CNC(=O)CCSCCSP(=O)(OC)OC",-93.71120010234198,"CNC(=O)CCSCCSP(=O)(OC)OC",1.9898,64.63000000000001,287.041486686,5,1,9,1,6,1,8,16,34,0,0,0,0,0,0,0,0,0,0,0,0.875
"B-1842","1-naphthalenecarboxylic acid, 2-hydroxy-",-3.1284,"O=C([O-])c1c(O)ccc2ccccc12","O=C([O-])c1c(O)ccc2ccccc12",33.41670930155431,"O=C([O-])c1c(O)ccc2ccccc12",0.9089,60.36,187.04006766391,3,1,1,1,3,0,3,14,21,0,2,2,0,0,0,0,0,2,0,0,0
"B-1845","trans-cyclohexane-1,2-dicarboxylic acid",-1.935,"O=C([O-])C1CCCCC1C(=O)[O-]","O=C([O-])C1CCCCC1C(=O)[O-]",76.88662695302325,"O=C([O-])C1CCCCC1C(=O)[O-]",-1.7073999999999987,80.25999999999999,170.05900595982,4,0,2,0,4,0,4,12,22,2,1,0,1,1,0,0,0,0,1,1,0.75
"B-1846","2h-purin-2-one, 1,3-dihydro-",-1.7136,"O=c1ncc2[nH]cnc2[nH]1","O=C1N=Cc2[nH]cnc2N1",-48.01209535143902,"O=c1ncc2[nH]cnc2[nH]1",0.3741,70.14,136.038510748,5,2,0,2,2,2,5,10,14,0,2,1,0,1,1,0,1,0,0,0,0
"B-1847","1h-purine-2,6,8(3h)-trione, 7,9-dihydro-1,3,7,9-",-0.9527,"Cn1c(=O)c2c(n(C)c1=O)n(C)c(=O)n2C","CN1C(=O)C2=C(N(C)C1=O)N(C)C(=O)N2C",-97.2825544825592,"Cn1c(=O)c2c(n(C)c1=O)n(C)c(=O)n2C",-0.3234999999999999,64.17,224.090940244,7,0,0,0,3,5,7,16,28,0,2,0,0,2,0,0,2,0,0,0,0.4444444444444444
"B-1849","flurenol-butyl",-3.8885,"CCCCOC(=O)C1(O)c2ccccc2-c2ccccc21","CCCCOC(=O)C1(O)c2ccccc2-c2ccccc21",84.66015937860595,"CCCCOC(=O)C1(O)c2ccccc2c2ccccc12",3.2462000000000018,46.53,282.125594436,3,1,4,1,3,0,3,21,39,0,3,2,0,1,0,0,0,2,0,1,0.2777777777777778
"B-1851","propyl benzoate",-2.6701,"CCCOC(=O)c1ccccc1","CCCOC(=O)c1ccccc1",10.1945358746895,"CCCOC(=O)c1ccccc1",2.2534,26.3,164.083729624,2,0,3,0,2,0,2,12,24,0,1,1,0,0,0,0,0,1,0,0,0.3
"B-1853","butanedioic acid, (1-methylethyl)-",-0.4073,"CC(C)C(CC(=O)[O-])C(=O)[O-]","CC(C)C(CC(=O)[O-])C(=O)[O-]",67.03712421374172,"CC(C)C(CC(=O)[O-])C(=O)[O-]",-1.8514999999999984,80.25999999999999,158.05900595982,4,0,4,0,4,0,4,11,21,1,0,0,0,0,0,0,0,0,0,0,0.7142857142857143
"B-1854","n-acetyl-l-phenylalanine, ethyl ester",-1.7557,"CCOC(=O)[C@H](Cc1ccccc1)NC(C)=O","CCOC(=O)[C@H](Cc1ccccc1)NC(C)=O",6.638451934934455,"CCOC(=O)[C@H](Cc1ccccc1)NC(=O)C",1.2969,55.4,235.120843404,4,1,5,1,3,1,4,17,34,1,1,1,0,0,0,0,0,1,0,0,0.38461538461538464
"B-1855","1,2,3,5-tetrafluorobenzene",-2.3057,"Fc1cc(F)c(F)c(F)c1","Fc1cc(F)c(F)c(F)c1",12.200082435533611,"Fc1cc(F)c(F)c(F)c1",2.2430000000000003,0,150.009262944,0,0,0,0,0,0,4,10,12,0,1,1,0,0,0,0,0,1,0,0,0
"B-1856","2,2-dimethyl-1-pentanol",-1.4391,"CCCC(C)(C)CO","CCCC(C)(C)CO",6.314437578203031,"CCCC(C)(C)CO",1.8050000000000002,20.23,116.120115132,1,1,3,1,1,0,1,8,24,0,0,0,0,0,0,0,0,0,0,0,1
"B-1857","3,4-(methylenedioxy)cinnamic acid",-3.8523,"O=C([O-])C=Cc1ccc2c(c1)OCO2","O=C([O-])C=Cc1ccc2c(c1)OCO2",31.616741661231746,"O=C([O-])C=Cc1ccc2c(c1)OCO2",0.1783999999999999,58.59,191.03498228391,4,0,2,0,4,0,4,14,21,0,2,1,0,1,0,0,1,1,0,0,0.1
"B-1859","10-methyl-benz(a)anthracene",-6.644,"Cc1ccc2cc3ccc4ccccc4c3cc2c1","Cc1ccc2cc3ccc4ccccc4c3cc2c1",52.54737444851761,"Cc1ccc2cc3ccc4ccccc4c3cc2c1",5.454620000000004,0,242.109550448,0,0,0,0,0,0,0,19,33,0,4,4,0,0,0,0,0,4,0,0,0.05263157894736842
"B-1860","9-methylbenz(a)anthracene",-6.8162,"Cc1ccc2cc3c(ccc4ccccc43)cc2c1","Cc1ccc2cc3c(ccc4ccccc43)cc2c1",52.548865730164394,"Cc1ccc2cc3c(ccc4ccccc34)cc2c1",5.454620000000004,0,242.109550448,0,0,0,0,0,0,0,19,33,0,4,4,0,0,0,0,0,4,0,0,0.05263157894736842
"B-1861","6-methylbenzo(a)pyrene",-8.5234,"Cc1c2ccccc2c2ccc3cccc4ccc1c2c43","Cc1c2ccccc2c2ccc3cccc4ccc1c2c43",68.48372918101747,"Cc1c2ccccc2c2ccc3cccc4ccc1c2c34",6.045620000000003,0,266.109550448,0,0,0,0,0,0,0,21,35,0,5,5,0,0,0,0,0,5,0,0,0.047619047619047616
"B-1862","2(3h)-benzoxazolethione",-2.1795,"S=c1[nH]c2ccccc2o1","S=C1Nc2ccccc2O1",23.35309794949727,"S=c1[nH]c2ccccc2o1",1.7758,21.259999999999998,151.00918478,2,1,0,1,2,0,3,10,15,0,2,1,0,1,0,0,1,1,0,0,0
"B-1865","1,8-nonadiyne",-2.983,"C#CCCCCCC#C","C#CCCCCCC#C",-0.08360474420046504,"C#CCCCCCC#C",2.2033000000000005,0,120.093900384,0,0,4,0,0,0,0,9,21,0,0,0,0,0,0,0,0,0,0,0,0.5555555555555556
"B-1866","n-oxidenicotinic acid",-1.2983,"O=C([O-])C1=C[NH+2]([O-])[CH-]C=C1","O=C([O-])C1=C[NH+2]([O-])[CH-]C=C1",12.162611215636007,"O=C([O-])C1=C[NH+2]([O-])[CH-]C=C1",-2.265509999999999,70.59,139.02749159991,4,1,1,0,3,0,4,10,15,1,1,0,0,1,0,0,1,0,0,0,0
"B-1867","phosphonic acid, ethyl-, dibutyl ester",-1.5687,"CCCCOP(=O)(CC)OCCCC","CCCCOP(=O)(CC)OCCCC",-39.17017122010556,"CCCCOP(=O)(CC)OCCCC",3.8328000000000033,35.53,222.138481226,3,0,9,0,3,0,4,14,37,0,0,0,0,0,0,0,0,0,0,0,1
"B-1868","dibutyl methylphosphonate",-1.4155,"CCCCOP(C)(=O)OCCCC","CCCCOP(C)(=O)OCCCC",-37.57904882448223,"CCCCOP(=O)(C)OCCCC",3.442700000000002,35.53,208.12283116199998,3,0,8,0,3,0,4,13,34,0,0,0,0,0,0,0,0,0,0,0,1
"B-1869","phenol, 2-phenoxy-",-3.2286,"Oc1ccccc1Oc1ccccc1","Oc1ccccc1Oc1ccccc1",43.42323044456044,"Oc1ccccc1Oc1ccccc1",3.1845000000000017,29.46,186.06807956,2,1,2,1,2,0,2,14,24,0,2,2,0,0,0,0,0,2,0,0,0
"B-1870","tri-sec-butanolamine",-0.5229,"CCC(O)C[NH+](CC(O)CC)CC(O)CC","CCC(O)C[NH+](CC(O)CC)CC(O)CC",31.282217453544817,"CCC(O)C[NH+](CC(O)CC)CC(O)CC",-0.8159999999999985,65.13000000000001,234.20637017609,4,4,9,4,3,0,4,16,44,3,0,0,0,0,0,0,0,0,0,0,1
"B-1871","12-methylbenz(a)anthracene",-6.5648,"Cc1c2ccccc2cc2ccc3ccccc3c12","Cc1c2ccccc2cc2ccc3ccccc3c12",59.49411413216971,"Cc1c2ccccc2cc2ccc3ccccc3c12",5.454620000000004,0,242.109550448,0,0,0,0,0,0,0,19,33,0,4,4,0,0,0,0,0,4,0,0,0.05263157894736842
"B-1873","glycidyl n-butyl ether",-0.8135,"CCCCOCC1CO1","CCCCOCC1CO1",3.576048764242885,"CCCCOCC1CO1",1.2019,21.759999999999998,130.099379688,2,0,5,0,2,0,2,9,23,1,1,0,1,1,0,1,1,0,0,0,1
"B-1875","pteridine, 2-methyl-",-0.1191,"Cc1ncc2nccnc2n1","Cc1ncc2nccnc2n1",61.999176678068466,"Cc1ncc2nccnc2n1",0.7282199999999999,51.56,146.059246192,4,0,0,0,4,0,4,11,17,0,2,2,0,0,2,0,0,0,0,0,0.14285714285714285
"B-1876","pteridine, 4-methyl-",-0.4658,"Cc1ncnc2nccnc12","Cc1ncnc2nccnc12",59.444846836773465,"Cc1ncnc2nccnc12",0.7282199999999999,51.56,146.059246192,4,0,0,0,4,0,4,11,17,0,2,2,0,0,2,0,0,0,0,0,0.14285714285714285
"B-1878","oxythioquinox",-5.3698,"Cc1ccc2nc3sc(=O)sc3nc2c1","Cc1ccc2nc3c(nc2c1)SC(=O)S3",52.16262922154267,"Cc1ccc2nc3c(nc2c1)sc(=O)s3",3.2560200000000012,42.85,233.992154812,3,0,0,0,5,0,5,15,21,0,3,2,0,1,1,0,1,1,0,0,0.1
"B-1880","o-methoxybenzamide",-1.7815,"COc1ccccc1C(N)=O","COc1ccccc1C(N)=O",34.916661876882365,"COc1ccccc1C(=O)N",0.7941,52.32,151.063328528,3,2,2,1,2,1,3,11,20,0,1,1,0,0,0,0,0,1,0,0,0.125
"B-1881","glyphosine",-0.0256,"O=C([O-])C[NH+](CP(=O)([O-])[O-])CP(=O)([O-])[O-]","O=C([O-])C[NH+](CP(=O)([O-])[O-])CP(=O)([O-])[O-]",293.7374532442673,"O=C([O-])C[NH+](CP(=O)([O-])[O-])CP(=O)([O-])[O-]",-6.636399999999998,170.95,258.96688376364,9,1,6,1,8,0,11,15,22,0,0,0,0,0,0,0,0,0,0,0,0.75
"B-1882","ethanone, 2-(4-aminophenyl)-1-phenyl-",-1.805,"Nc1ccc(CC(=O)c2ccccc2)cc1","Nc1ccc(CC(=O)c2ccccc2)cc1",38.742704307781345,"Nc1ccc(CC(=O)c2ccccc2)cc1",2.6942000000000013,43.09,211.099714036,2,2,3,1,2,0,2,16,29,0,2,2,0,0,0,0,0,2,0,0,0.07142857142857142
"B-1886","1,4,5,8-tetraaminoanthraquinone",-6.9515,"Nc1ccc(N)c2c1C(=O)c1c(N)ccc(N)c1C2=O","Nc1ccc(N)c2c1C(=O)c1c(N)ccc(N)c1C2=O",35.56442744797176,"Nc1ccc(N)c2c1C(=O)c1c(N)ccc(N)c1C2=O",0.7908000000000002,138.22,268.096025624,6,8,0,4,6,0,6,20,32,0,3,2,0,1,0,0,0,2,0,1,0
"B-1887","medinoterb acetate",-4.4717,"CC(=O)Oc1c([N+](=O)[O-])cc([N+](=O)[O-])c(C)c1C(C)(C)C","CC(=O)Oc1c([N+](=O)[O-])cc([N+](=O)[O-])c(C)c1C(C)(C)C",71.63650149561481,"CC(=O)Oc1c([N+](=O)[O-])cc([N+](=O)[O-])c(C)c1C(C)(C)C",3.0342200000000012,112.58000000000001,296.100836232,8,0,3,0,6,0,8,21,37,0,1,1,0,0,0,0,0,1,0,0,0.46153846153846156
"B-1888","glycine, n-formyl-",0.2672,"O=CNCC(=O)[O-]","O=CNCC(=O)[O-]",23.8118660947026,"O=CNCC(=O)[O-]",-2.5176999999999996,69.23,102.01966656791001,4,1,3,1,3,1,4,7,11,0,0,0,0,0,0,0,0,0,0,0,0.3333333333333333
"B-1889","ethanone, 1-(4-hydroxyphenyl)-2-phenyl-",-1.5008,"O=C(Cc1ccccc1)c1ccc(O)cc1","O=C(Cc1ccccc1)c1ccc(O)cc1",39.0141135775947,"O=C(Cc1ccccc1)c1ccc(O)cc1",2.8176000000000014,37.3,212.083729624,2,1,3,1,2,0,2,16,28,0,2,2,0,0,0,0,0,2,0,0,0.07142857142857142
"B-1890","disulfoton sulfone",-2.5403,"CCOP(=S)(OCC)SCCS(=O)(=O)CC","CCOP(=S)(OCC)SCCS(=O)(=O)CC",-86.77310197274363,"CCOP(=S)(OCC)SCCS(=O)(=O)CC",2.4518000000000004,52.6,306.018308718,4,0,9,0,6,0,8,16,35,0,0,0,0,0,0,0,0,0,0,0,1
"B-1891","benz[a]anthracene, 5-fluoro-7-methyl-",-7.31,"Cc1c2ccccc2cc2c1cc(F)c1ccccc12","Cc1c2ccccc2cc2c1cc(F)c1ccccc12",58.17634097953656,"Cc1c2ccccc2cc2c1cc(F)c1ccccc21",5.593720000000003,0,260.100128636,0,0,0,0,0,0,1,20,33,0,4,4,0,0,0,0,0,4,0,0,0.05263157894736842
"B-1892","1-methylbenz(a)anthracene",-6.644,"Cc1cccc2ccc3cc4ccccc4cc3c12","Cc1cccc2ccc3cc4ccccc4cc3c12",56.84215936889123,"Cc1cccc2ccc3cc4ccccc4cc3c12",5.454620000000004,0,242.109550448,0,0,0,0,0,0,0,19,33,0,4,4,0,0,0,0,0,4,0,0,0.05263157894736842
"B-1894","dibutyl phenyl phosphate",-3.4746,"CCCCOP(=O)(OCCCC)Oc1ccccc1","CCCCOP(=O)(OCCCC)Oc1ccccc1",-41.493776228355046,"CCCCOP(=O)(OCCCC)Oc1ccccc1",4.806900000000004,44.760000000000005,286.13339584600004,4,0,10,0,4,0,5,19,42,0,1,1,0,0,0,0,0,1,0,0,0.5714285714285714
"B-1897","formothion",-1.9954,"COP(=S)(OC)SCC(=O)N(C)C=O","COP(=S)(OC)SCC(=O)N(C)C=O",-114.93868193773679,"COP(=S)(OC)SCC(=O)N(C)C=O",0.8516999999999999,55.84,256.99453649400004,5,0,6,0,6,2,8,14,26,0,0,0,0,0,0,0,0,0,0,0,0.6666666666666666
"B-1898","benz[a]anthracene, 6-fluoro-7-methyl-",-7.31,"Cc1c2ccccc2cc2c1c(F)cc1ccccc12","Cc1c2ccccc2cc2c1c(F)cc1ccccc12",60.18094007114643,"Cc1c2ccccc2cc2c1c(F)cc1ccccc21",5.593720000000003,0,260.100128636,0,0,0,0,0,0,1,20,33,0,4,4,0,0,0,0,0,4,0,0,0.05263157894736842
"B-1899","benz(a)anthracene-7-methyl",-7.343,"Cc1c2ccccc2cc2c1ccc1ccccc12","Cc1c2ccccc2cc2c1ccc1ccccc12",56.85111932639151,"Cc1c2ccccc2cc2c1ccc1ccccc21",5.454620000000004,0,242.109550448,0,0,0,0,0,0,0,19,33,0,4,4,0,0,0,0,0,4,0,0,0.05263157894736842
"B-1900","nonanoic acid, 9-oxo-",-0.9574,"O=CCCCCCCCC(=O)[O-]","O=CCCCCCCCC(=O)[O-]",-5.940523102158358,"O=CCCCCCCCC(=O)[O-]",0.6658999999999999,57.2,171.10266791991,3,0,8,0,3,0,3,12,27,0,0,0,0,0,0,0,0,0,0,0,0.7777777777777778
"B-1902","1,3-dioxolane, 2-ethyl-",0.2919,"CCC1OCCO1","CCC1OCCO1",4.116079555795316,"CCC1OCCO1",0.7693,18.46,102.06807956,2,0,1,0,2,0,2,7,17,0,1,0,1,1,0,1,1,0,0,0,1
"B-1903","ethanediimidamide, n,n''-dihydroxy-",-0.7773,"[NH3+]C(N=O)=C([NH3+])N[O-]","[NH3+]C(N=O)=C([NH3+])N[O-]",-107.40982091356523,"[NH3+]C(=C([NH3+])N[O-])N=O",-2.5494000000000003,119.80000000000001,119.05635188408999,6,7,2,3,4,0,6,8,15,0,0,0,0,0,0,0,0,0,0,0,0