"ID","Name","Solubility","SMILES Canonical","Smiles (Optimized Geometry)","Energy","Smiles","SlogP","TPSA","ExactMW","NumLipinskiHBA","NumLipinskiHBD","NumRotatableBonds","NumHBD","NumHBA","NumAmideBonds","NumHeteroAtoms","NumHeavyAtoms","NumAtoms","NumStereocenters","NumRings","NumAromaticRings","NumSaturatedRings","NumAliphaticRings","NumAromaticHeterocycles","NumSaturatedHeterocycles","NumAliphaticHeterocycles","NumAromaticCarbocycles","NumSaturatedCarbocycles","NumAliphaticCarbocycles","FractionCSP3"
"B-1349","1,3-benzenediol, 4,6-dinitro-",-3.4086,"O=[N+]([O-])c1cc([N+](=O)[O-])c([O-])cc1[O-]","O=[N+]([O-])c1cc([N+](=O)[O-])c([O-])cc1[O-]",157.0849198254249,"O=[N+]([O-])c1cc([N+](=O)[O-])c([O-])cc1[O-]",-0.34980000000000033,132.4,197.99238294382002,8,0,2,0,6,0,8,14,16,0,1,1,0,0,0,0,0,1,0,0,0
"B-1350","benzoic acid, 5-formyl-2-hydroxy-",-2.6354,"O=Cc1ccc(O)c(C(=O)[O-])c1","O=Cc1ccc(O)c(C(=O)[O-])c1",15.414144315566363,"O=Cc1ccc(O)c(C(=O)[O-])c1",-0.43179999999999996,77.42999999999999,165.01933221991,4,1,2,1,4,0,4,12,17,0,1,1,0,0,0,0,0,1,0,0,0
"B-1351","pentylmalonic acid",0.5921,"CCCCCC(C(=O)[O-])C(=O)[O-]","CCCCCC(C(=O)[O-])C(=O)[O-]",44.684368669052915,"CCCCCC(C(=O)[O-])C(=O)[O-]",-1.317299999999999,80.25999999999999,172.07465602382,4,0,6,0,4,0,4,12,24,0,0,0,0,0,0,0,0,0,0,0,0.75
"B-1352","2-methyl-3-hexanol",-1.3093,"CCCC(O)C(C)C","CCCC(O)C(C)C",5.821037528963843,"CCCC(O)C(C)C",1.8034,20.23,116.120115132,1,1,3,1,1,0,1,8,24,1,0,0,0,0,0,0,0,0,0,0,1
"B-1357","benzenesulfonic acid, 3-(dimethylamino)-",0.2983,"CN(C)c1cccc(S(=O)(=O)[O-])c1","CN(C)c1cccc(S(=O)(=O)[O-])c1",24.34004307550361,"CN(C)c1cccc(S(=O)(=O)[O-])c1",0.6567,60.44,200.03868775991,4,0,2,0,4,0,5,13,23,0,1,1,0,0,0,0,0,1,0,0,0.25
"B-1360","3,4-dimethylbenzoic acid",-3.0653,"Cc1ccc(C(=O)[O-])cc1C","Cc1ccc(C(=O)[O-])cc1C",23.9324939864403,"Cc1ccc(C(=O)[O-])cc1C",0.6669399999999999,40.129999999999995,149.06080310791,2,0,1,0,2,0,2,11,20,0,1,1,0,0,0,0,0,1,0,0,0.2222222222222222
"B-1361","m-nitrobenzyl alcohol",-2.4142,"O=[N+]([O-])c1cccc(CO)c1","O=[N+]([O-])c1cccc(CO)c1",25.38130091869179,"O=[N+]([O-])c1cccc(CO)c1",1.0871,63.370000000000005,153.042593084,4,1,2,1,3,0,4,11,18,0,1,1,0,0,0,0,0,1,0,0,0.14285714285714285
"B-1362","p-cyanobenzoic acid",-2.0885,"N#Cc1ccc(C(=O)[O-])cc1","N#Cc1ccc(C(=O)[O-])cc1",13.047428917481508,"N#Cc1ccc(C(=O)[O-])cc1",-0.07822000000000007,63.92,146.02475194791,3,0,1,0,3,0,3,11,15,0,1,1,0,0,0,0,0,1,0,0,0
"B-1363","p-nitrobenzyl alcohol",-1.8841,"O=[N+]([O-])c1ccc(CO)cc1","O=[N+]([O-])c1ccc(CO)cc1",21.96462106057468,"O=[N+]([O-])c1ccc(CO)cc1",1.0871,63.370000000000005,153.042593084,4,1,2,1,3,0,4,11,18,0,1,1,0,0,0,0,0,1,0,0,0.14285714285714285
"B-1364","4-dimethylamino benzoic acid",-3.3979,"CN(C)c1ccc(C(=O)[O-])cc1","CN(C)c1ccc(C(=O)[O-])cc1",31.220081443853154,"CN(C)c1ccc(C(=O)[O-])cc1",0.11609999999999965,43.370000000000005,164.07170213991,3,0,2,0,3,0,3,12,22,0,1,1,0,0,0,0,0,1,0,0,0.2222222222222222
"B-1365","m-hydroxybenzyl alcohol",-0.2678,"OCc1cccc(O)c1","OCc1cccc(O)c1",14.129621748409736,"OCc1cccc(O)c1",0.8844999999999998,40.46,124.052429496,2,2,1,2,2,0,2,9,17,0,1,1,0,0,0,0,0,1,0,0,0.14285714285714285
"B-1366","acetamide, 2-cyano-n-phenyl-",-2.7275,"N#CCC(=O)Nc1ccccc1","N#CCC(=O)Nc1ccccc1",6.1091947629555055,"N#CCC(=O)Nc1ccccc1",1.5387799999999998,52.89,160.063662876,3,1,2,1,2,1,3,12,20,0,1,1,0,0,0,0,0,1,0,0,0.1111111111111111
"B-1367","m-hydroxyphenylacetic acid",0.8177,"O=C([O-])Cc1cccc(O)c1","O=C([O-])Cc1cccc(O)c1",36.53986295619912,"O=C([O-])Cc1cccc(O)c1",-0.3154000000000006,60.36,151.04006766391,3,1,2,1,3,0,3,11,18,0,1,1,0,0,0,0,0,1,0,0,0.125
"B-1368","1-pentanamine, n,n-dipentyl-",-4.0326,"CCCCC[NH+](CCCCC)CCCCC","CCCCC[NH+](CCCCC)CCCCC",2.483992938702024,"CCCCC[NH+](CCCCC)CCCCC",3.441900000000002,4.44,228.26857650809,1,1,12,1,0,0,1,16,50,0,0,0,0,0,0,0,0,0,0,0,1
"B-1369","4-methylphenylisothiocyanate",-4.7213,"Cc1ccc(N=C=S)cc1","Cc1ccc(N=C=S)cc1",16.484551642001353,"Cc1ccc(N=C=S)cc1",2.7293200000000004,12.36,149.029920224,1,0,1,0,2,0,2,10,17,0,1,1,0,0,0,0,0,1,0,0,0.125
"B-1370","p-methylstyrene",-3.1232,"C=Cc1ccc(C)cc1","C=Cc1ccc(C)cc1",16.176251085923962,"C=Cc1ccc(C)cc1",2.638020000000001,0,118.07825032,0,0,1,0,0,0,0,9,19,0,1,1,0,0,0,0,0,1,0,0,0.1111111111111111
"B-1371","p-hydroxybenzyl alcohol",-1.2678,"OCc1ccc(O)cc1","OCc1ccc(O)cc1",13.960060426085825,"OCc1ccc(O)cc1",0.8845000000000001,40.46,124.052429496,2,2,1,2,2,0,2,9,17,0,1,1,0,0,0,0,0,1,0,0,0.14285714285714285
"B-1373","1,4-benzenedicarboxaldehyde",-2.8265,"O=Cc1ccc(C=O)cc1","O=Cc1ccc(C=O)cc1",18.373879876538133,"O=Cc1ccc(C=O)cc1",1.3115999999999999,34.14,134.036779432,2,0,2,0,2,0,2,10,16,0,1,1,0,0,0,0,0,1,0,0,0
"B-1374","methylbutyrate",-0.8331,"CCCC(=O)OC","CCCC(=O)OC",-10.755137685351642,"CCCC(=O)OC",0.9595,26.3,102.06807956,2,0,2,0,2,0,2,7,17,0,0,0,0,0,0,0,0,0,0,0,0.8
"B-1375","1,2-propylene glycol diacetate",-0.2046,"CC(=O)OCC(C)OC(C)=O","CC(=O)OCC(C)OC(C)=O",-15.75797331734108,"CC(=O)OCC(C)OC(=O)C",0.5010999999999999,52.6,160.073558864,4,0,3,0,4,0,4,11,23,1,0,0,0,0,0,0,0,0,0,0,0.7142857142857143
"B-1376","decanedioic acid, bis(2-ethoxyethyl) ester",-3.1972,"CCOCCOC(=O)CCCCCCCCC(=O)OCCOCC","CCOCCOC(=O)CCCCCCCCC(=O)OCCOCC",-0.31203012899545257,"CCOCCOC(=O)CCCCCCCCC(=O)OCCOCC",3.266600000000002,71.06,346.235538808,6,0,17,0,6,0,6,24,58,0,0,0,0,0,0,0,0,0,0,0,0.8888888888888888
"B-1377","diethyl azelate",-2.99,"CCOC(=O)CCCCCCCC(=O)OCC","CCOC(=O)CCCCCCCC(=O)OCC",-22.218564659397217,"CCOC(=O)CCCCCCCC(=O)OCC",2.843300000000001,52.60000000000001,244.167459248,4,0,10,0,4,0,4,17,41,0,0,0,0,0,0,0,0,0,0,0,0.8461538461538461
"B-1378","methyl valerate",-1.3606,"CCCCC(=O)OC","CCCCC(=O)OC",-10.873584730535464,"CCCCC(=O)OC",1.3496000000000001,26.3,116.083729624,2,0,3,0,2,0,2,8,20,0,0,0,0,0,0,0,0,0,0,0,0.8333333333333334
"B-1381","3-nonanol",-2.6608,"CCCCCCC(O)CC","CCCCCCC(O)CC",4.212418140840093,"CCCCCCC(O)CC",2.7277000000000013,20.23,144.15141526,1,1,6,1,1,0,1,10,30,1,0,0,0,0,0,0,0,0,0,0,1
"B-1384","3,3-dimethyl-1-butanol",-1.1308,"CC(C)(C)CCO","CC(C)(C)CCO",3.016738036039751,"CC(C)(C)CCO",1.4149,20.23,102.104465068,1,1,1,1,1,0,1,7,21,0,0,0,0,0,0,0,0,0,0,0,1
"B-1385","2,4-dimethyl-2-pentanol",-0.9307,"CC(C)CC(C)(C)O","CC(C)CC(C)(C)O",4.464712932315726,"CC(C)CC(C)(C)O",1.8034,20.23,116.120115132,1,1,2,1,1,0,1,8,24,0,0,0,0,0,0,0,0,0,0,0,1
"B-1386","urea, (1,1-dimethylpropyl)-",-1.0142,"CCC(C)(C)NC(N)=O","CCC(C)(C)NC(N)=O",-9.182824131945663,"CCC(C)(C)NC(=O)N",0.8433000000000002,55.12,130.110613068,3,3,2,2,1,2,3,9,23,0,0,0,0,0,0,0,0,0,0,0,0.8333333333333334
"B-1387","2-methyl-2-hexanol",-1.0784,"CCCCC(C)(C)O","CCCCC(C)(C)O",2.7802931743471104,"CCCCC(C)(C)O",1.9475000000000002,20.23,116.120115132,1,1,3,1,1,0,1,8,24,0,0,0,0,0,0,0,0,0,0,0,1
"B-1388","2-methyl-2-heptanol",-1.7168,"CCCCCC(C)(C)O","CCCCCC(C)(C)O",2.673105712436683,"CCCCCC(C)(C)O",2.3376000000000006,20.23,130.135765196,1,1,4,1,1,0,1,9,27,0,0,0,0,0,0,0,0,0,0,0,1
"B-1397","2,4-dihydroxypyridine",-1.2498,"O=c1cc[nH]c([O-])c1","O=C1C=CNC([O-])=C1",8.690272470309269,"O=c1cc[nH]c([O-])c1",-1.1259000000000001,52.16,110.02475194791,3,1,0,1,3,0,3,8,12,0,1,0,0,1,0,0,1,0,0,0,0
"B-1398","1,3-benzenedimethanol",-0.2328,"OCc1cccc(CO)c1","OCc1cccc(CO)c1",13.762879173390596,"OCc1cccc(CO)c1",0.6712,40.46,138.06807956,2,2,2,2,2,0,2,10,20,0,1,1,0,0,0,0,0,1,0,0,0.25
"B-1399","24pyrimidinedione6methyl",-1.2557,"Cc1cc(=O)[nH]c(=O)[nH]1","CC1=CC(=O)NC(=O)N1",-15.21866672100886,"Cc1cc(=O)[nH]c(=O)[nH]1",-0.27039999999999986,58.2,126.042927432,4,2,0,2,2,3,4,9,15,0,1,0,0,1,0,0,1,0,0,0,0.2
"B-1401","2-propanol, 1,3-bis(3-methylbutoxy)-",-1.3662,"CC(C)CCOCC(O)COCCC(C)C","CC(C)CCOCC(O)COCCC(C)C",26.619275634726577,"CC(C)CCOCC(O)COCCC(C)C",2.4727000000000006,38.69,232.20384475600002,3,1,10,1,3,0,3,16,44,0,0,0,0,0,0,0,0,0,0,0,1
"B-1402","hexanedioic acid, monoethyl ester",-0.3602,"CCOC(=O)CCCCC(=O)[O-]","CCOC(=O)CCCCC(=O)[O-]",-9.44407708310583,"CCOC(=O)CCCCC(=O)[O-]",-0.1402000000000001,66.43,173.08193247591,4,0,6,0,4,0,4,12,25,0,0,0,0,0,0,0,0,0,0,0,0.75
"B-1403","4-methyl-1-pentanol",-1.1286,"CC(C)CCCO","CC(C)CCCO",4.591794625961277,"CC(C)CCCO",1.4149,20.23,102.104465068,1,1,3,1,1,0,1,7,21,0,0,0,0,0,0,0,0,0,0,0,1
"B-1405","propyl isopropyl ether",-1.3373,"CCCOC(C)C","CCCOC(C)C",5.765964022863074,"CCCOC(C)C",1.8214000000000001,9.23,102.104465068,1,0,3,0,1,0,1,7,21,0,0,0,0,0,0,0,0,0,0,0,1
"B-1406","1-propylnitrate",-1.5044,"CCCO[N+](=O)[O-]","CCCO[N+](=O)[O-]",-16.38683298828357,"CCCO[N+](=O)[O-]",0.6047,52.370000000000005,105.042593084,4,0,3,0,3,0,4,7,14,0,0,0,0,0,0,0,0,0,0,0,1
"B-1411","5-methyl-2-hexanol",-1.375,"CC(C)CCC(C)O","CC(C)CCC(C)O",4.149596366561963,"CC(C)CCC(C)O",1.8034,20.23,116.120115132,1,1,3,1,1,0,1,8,24,1,0,0,0,0,0,0,0,0,0,0,1
"B-1412","3-isopentyloxy-propane-1,2-diol",-1.2101,"CC(C)CCOCC(O)CO","CC(C)CCOCC(O)CO",20.283323234023882,"CC(C)CCOCC(O)CO",0.40229999999999994,49.69,162.125594436,3,2,6,2,3,0,3,11,29,1,0,0,0,0,0,0,0,0,0,0,1
"B-1413","hexanedioic acid, dimethyl ester",-1.4629,"COC(=O)CCCCC(=O)OC","COC(=O)CCCCC(=O)OC",-21.522883846189,"COC(=O)CCCCC(=O)OC",0.8927999999999998,52.60000000000001,174.089208928,4,0,5,0,4,0,4,12,26,0,0,0,0,0,0,0,0,0,0,0,0.75
"B-1416","n-amyl acetate",-1.8841,"CCCCCOC(C)=O","CCCCCOC(C)=O",-11.78990197082513,"CCCCCOC(=O)C",1.7397,26.3,130.099379688,2,0,4,0,2,0,2,9,23,0,0,0,0,0,0,0,0,0,0,0,0.8571428571428571
"B-1417","1,3-propanediol, diacetate",-0.2046,"CC(=O)OCCCOC(C)=O","CC(=O)OCCCOC(C)=O",-24.67662759056168,"CC(=O)OCCCOC(=O)C",0.5026999999999999,52.6,160.073558864,4,0,4,0,4,0,4,11,23,0,0,0,0,0,0,0,0,0,0,0,0.7142857142857143
"B-1420","1-octyne",-3.662,"C#CCCCCCC","C#CCCCCCC",-0.3221691839300631,"C#CCCCCCC",2.5900000000000007,0,110.109550448,0,0,4,0,0,0,0,8,22,0,0,0,0,0,0,0,0,0,0,0,0.75
"B-1421","n-tridecane",-7.5936,"CCCCCCCCCCCCC","CCCCCCCCCCCCC",-0.9625460814008616,"CCCCCCCCCCCCC",5.317300000000005,0,184.219100896,0,0,10,0,0,0,0,13,41,0,0,0,0,0,0,0,0,0,0,0,1
"B-1423","n-pentadecane",-9.4464,"CCCCCCCCCCCCCCC","CCCCCCCCCCCCCCC",-1.165505100391015,"CCCCCCCCCCCCCCC",6.097500000000006,0,212.25040102399998,0,0,12,0,0,0,0,15,47,0,0,0,0,0,0,0,0,0,0,0,1
"B-1424","1-pentadecanol",-6.3476,"CCCCCCCCCCCCCCCO","CCCCCCCCCCCCCCCO",-1.2646765289215829,"CCCCCCCCCCCCCCCO",5.069900000000006,20.23,228.24531564400002,1,1,13,1,1,0,1,16,48,0,0,0,0,0,0,0,0,0,0,0,1
"B-1425","hexacosane",-8.3339,"CCCCCCCCCCCCCCCCCCCCCCCCCC","CCCCCCCCCCCCCCCCCCCCCCCCCC",-2.2819182948249446,"CCCCCCCCCCCCCCCCCCCCCCCCCC",10.388599999999993,0,366.422551728,0,0,23,0,0,0,0,26,80,0,0,0,0,0,0,0,0,0,0,0,1
"B-1426","hexatriacontane",-8.4746,"CCCCCCCCCCCCCCCCCCCCCCCCCCCCCCCCCCCC","CCCCCCCCCCCCCCCCCCCCCCCCCCCCCCCCCCCC",-3.2968525212989244,"CCCCCCCCCCCCCCCCCCCCCCCCCCCCCCCCCCCC",14.289599999999968,0,506.579052368,0,0,33,0,0,0,0,36,110,0,0,0,0,0,0,0,0,0,0,0,1
"B-1430","sulfasomizole",-1.0762,"Cc1cc(NS(=O)(=O)c2ccc(N)cc2)sn1","Cc1cc(NS(=O)(=O)c2ccc(N)cc2)sn1",1.393950232494702,"Cc1cc(NS(=O)(=O)c2ccc(N)cc2)sn1",1.8345199999999997,85.08,269.02926859200005,5,3,3,2,5,0,7,17,28,0,2,2,0,0,1,0,0,1,0,0,0.1
"B-1432","tetramethylurea",0.9349,"CN(C)C(=O)N(C)C","CN(C)C(=O)N(C)C",-71.07140235990519,"CN(C)C(=O)N(C)C",0.22960000000000003,23.550000000000004,116.094963004,3,0,0,0,1,2,3,8,20,0,0,0,0,0,0,0,0,0,0,0,0.8
"B-1434","bilirubin",-4.8127,"C=CC1=C(C)C(=Cc2[nH]c(Cc3[nH]c(C=C4NC(=O)C(C)=C4C=C)c(C)c3CCC(=O)[O-])c(CCC(=O)[O-])c2C)NC1=O","C=CC1=C(C)C(=Cc2[nH]c(Cc3[nH]c(C=C4NC(=O)C(C)=C4C=C)c(C)c3CCC(=O)[O-])c(CCC(=O)[O-])c2C)NC1=O",43.571931975067734,"C=CC1=C(C)C(=Cc2[nH]c(Cc3[nH]c(C=C4NC(=O)C(=C4C=C)C)c(C)c3CCC(=O)[O-])c(CCC(=O)[O-])c2C)NC1=O",1.8618399999999997,170.04,582.24893196782,10,4,12,4,6,2,10,43,77,0,4,2,0,2,2,0,2,0,0,0,0.2727272727272727
"B-1435","resorufin",-1.0277,"O=c1ccc2nc3ccc(O)cc3oc-2c1","O=C1C=CC2=Nc3ccc(O)cc3OC2=C1",43.5460705639738,"O=c1ccc2nc3ccc(O)cc3oc2c1",1.8799,58.89,213.042593084,4,1,0,1,4,0,4,16,23,0,3,1,0,2,0,0,1,1,0,1,0
"B-1436","4(1h)-pyrimidinone, 2,3-dihydro-5-methyl-2-thiox",-2.4461,"Cc1c[nH]c(=S)[nH]c1=O","CC1=CNC(=S)NC1=O",-26.90423687771229,"Cc1c[nH]c(=S)[nH]c1=O",-0.10550000000000004,41.129999999999995,142.020083812,3,2,0,2,2,1,4,9,15,0,1,0,0,1,0,0,1,0,0,0,0.2
"B-1440","1-cyclohexene-1-carboxylic acid",-1.2558,"O=C([O-])C1=CCCCC1","O=C([O-])C1=CCCCC1",2.44012650632423,"O=C([O-])C1=CCCCC1",0.2366999999999998,40.129999999999995,125.06080310791,2,0,1,0,2,0,2,9,18,0,1,0,0,1,0,0,0,0,0,1,0.5714285714285714
"B-1441","p-benzoquinone oxime",-1.5462,"O=Nc1ccc(O)cc1","O=Nc1ccc(O)cc1",16.92633180970558,"O=Nc1ccc(O)cc1",1.7900999999999998,49.66,123.0320284,3,1,1,1,3,0,3,9,14,0,1,1,0,0,0,0,0,1,0,0,0
"B-1442","isopropyl propionate",-1.2906,"CCC(=O)OC(C)C","CCC(=O)OC(C)C",-10.251417484214722,"CCC(=O)OC(C)C",1.3479999999999999,26.3,116.083729624,2,0,2,0,2,0,2,8,20,0,0,0,0,0,0,0,0,0,0,0,0.8333333333333334
"B-1444","ethyl t-butyl ether",-0.9302,"CCOC(C)(C)C","CCOC(C)(C)C",4.190085066076452,"CCOC(C)(C)C",1.8214000000000001,9.23,102.104465068,1,0,1,0,1,0,1,7,21,0,0,0,0,0,0,0,0,0,0,0,1
"B-1445","4h-1,3,5-dithiazine, dihydro-2,4,6-trimethyl-,",-1.3679,"CC1[NH2+]C(C)SC(C)S1","CC1[NH2+]C(C)SC(C)S1",-46.572669814372134,"CC1[NH2+]C(C)SC(C)S1",1.0678,16.61,164.05621786809,1,2,0,1,2,0,3,9,23,2,1,0,1,1,0,1,1,0,0,0,1
"B-1446","1,3-diacetylurea",-0.3137,"CC(=O)NC(=O)NC(C)=O","CC(=O)NC(=O)NC(C)=O",-38.58801100985381,"CC(=O)NC(=O)NC(=O)C",-0.6214,75.27000000000001,144.053492116,5,2,0,2,3,4,5,10,18,0,0,0,0,0,0,0,0,0,0,0,0.4
"B-1447","tridecanoic acid",-3.8126,"CCCCCCCCCCCCC(=O)[O-]","CCCCCCCCCCCCC(=O)[O-]",2.575722203329559,"CCCCCCCCCCCCC(=O)[O-]",3.047300000000001,40.129999999999995,213.18600361991,2,0,11,0,2,0,2,15,40,0,0,0,0,0,0,0,0,0,0,0,0.9230769230769231
"B-1448","thiometon",-3.0905,"CCSCCSP(=S)(OC)OC","CCSCCSP(=S)(OC)OC",-70.39143114531717,"CCSCCSP(=S)(OC)OC",2.990000000000001,18.46,245.99717935,2,0,7,0,5,0,6,12,27,0,0,0,0,0,0,0,0,0,0,0,1
"B-1451","acetyl benzoyl peroxide",-2.4502,"CC(=O)OOC(=O)c1ccccc1","CC(=O)OOC(=O)c1ccccc1",28.176762933701784,"CC(=O)OOC(=O)c1ccccc1",1.3215,52.6,180.042258736,4,0,1,0,4,0,4,13,21,0,1,1,0,0,0,0,0,1,0,0,0.1111111111111111
"B-1452","4-propylphenol",-2.0276,"CCCc1ccc(O)cc1","CCCc1ccc(O)cc1",14.581745934313432,"CCCc1ccc(O)cc1",2.3447000000000005,20.23,136.088815004,1,1,2,1,1,0,1,10,22,0,1,1,0,0,0,0,0,1,0,0,0.3333333333333333
"B-1454","1,3,5-triazin-2(1h)-one, 4,6-diamino-",-3.2291,"Nc1nc(=O)nc(N)[nH]1","NC1=NC(=O)N=C(N)N1",-98.12109147020762,"Nc1nc(=O)nc(N)[nH]1",-1.661,105.86,127.04940977999999,6,5,0,3,4,2,6,9,14,0,1,0,0,1,0,0,1,0,0,0,0
"B-1457","5-aminopentanoic acid",0.9313,"[NH3+]CCCCC(=O)[O-]","[NH3+]CCCCC(=O)[O-]",-91.12676190105657,"[NH3+]CCCCC(=O)[O-]",-1.8514999999999993,67.77,117.078978592,3,3,4,1,2,0,3,8,19,0,0,0,0,0,0,0,0,0,0,0,0.8
"B-1458","l-homoserine",0.924,"[NH3+][C@@H](CCO)C(=O)[O-]","[NH3+][C@@H](CCO)C(=O)[O-]",-84.69286845463732,"[NH3+][C@@H](CCO)C(=O)[O-]",-3.270799999999999,88,119.058243148,4,4,3,2,3,0,4,8,17,1,0,0,0,0,0,0,0,0,0,0,0.75
"B-1459","simetone",-1.7898,"CCNc1nc(NCC)nc(OC)n1","CCNc1nc(NCC)nc(OC)n1",-186.94803842648275,"CCNc1nc(NCC)nc(OC)n1",0.7437999999999999,71.96000000000001,197.12766009999999,6,2,5,2,6,0,6,14,29,0,1,1,0,0,1,0,0,0,0,0,0.625
"B-1460","hexamethylphosphoramide",0.7467,"CN(C)P(=O)(N(C)C)N(C)C","CN(C)P(=O)(N(C)C)N(C)C",-193.55607279844352,"CN(C)P(=O)(N(C)C)N(C)C",0.7792999999999999,26.790000000000006,179.118748826,4,0,3,0,1,0,5,11,29,0,0,0,0,0,0,0,0,0,0,0,1
"B-1461","ethanesulfonothioic acid, s-ethyl ester",-1.109,"CCSS(=O)(=O)CC","CCSS(=O)(=O)CC",-20.243414257981225,"CCSS(=O)(=O)CC",1.0892,34.14,154.01222156,2,0,3,0,3,0,4,8,18,0,0,0,0,0,0,0,0,0,0,0,1
"B-1465","1-nitroso-1-methylurea",-0.8548,"CN(N=O)C(N)=O","CN(N=O)C(N)=O",-7.9043987228892405,"CN(N=O)C(=O)N",-0.3216999999999998,75.75999999999999,103.0381764,5,2,1,1,3,2,5,7,12,0,0,0,0,0,0,0,0,0,0,0,0.5
"B-1472","2(1h)-pyridinone, 1-methyl-",0.9621,"Cn1ccccc1=O","CN1C=CC=CC1=O",-4.640135212021693,"Cn1ccccc1=O",0.5283,20.310000000000002,109.052763844,2,0,0,0,1,1,2,8,15,0,1,0,0,1,0,0,1,0,0,0,0.16666666666666666
"B-1474","benzenamine, n,3-dimethyl-",-2.05,"CNc1cccc(C)c1","CNc1cccc(C)c1",17.542293398936952,"CNc1cccc(C)c1",2.03672,12.03,121.08914935199999,1,1,1,1,1,0,1,9,20,0,1,1,0,0,0,0,0,1,0,0,0.25
"B-1476","3-ethyl-5-methylphenol",-1.7696,"CCc1cc(C)cc(O)c1","CCc1cc(C)cc(O)c1",14.627093424167816,"CCc1cc(C)cc(O)c1",2.26302,20.23,136.088815004,1,1,1,1,1,0,1,10,22,0,1,1,0,0,0,0,0,1,0,0,0.3333333333333333
"B-1477","5-methyl-2-nitrophenol",-2.7505,"Cc1ccc([N+](=O)[O-])c([O-])c1","Cc1ccc([N+](=O)[O-])c([O-])c1",60.97728247553934,"Cc1ccc([N+](=O)[O-])c([O-])c1",0.9768199999999999,66.2,152.03531663191,4,0,1,0,3,0,4,11,17,0,1,1,0,0,0,0,0,1,0,0,0.14285714285714285
"B-1478","4-hydroxypteridine",-1.4716,"O=c1nc[nH]c2nccnc12","O=C1N=CNc2nccnc21",79.48393010099747,"O=c1nc[nH]c2nccnc12",0.07059999999999994,67.24000000000001,148.038510748,5,1,0,1,4,1,5,11,15,0,2,1,0,1,1,0,1,0,0,0,0
"B-1479","2-pteridinamine",-2.2979,"Nc1ncc2nccnc2n1","Nc1ncc2nccnc2n1",48.10980759643992,"Nc1ncc2nccnc2n1",0.0019999999999998352,77.58,147.05449516,5,2,0,1,5,0,5,11,16,0,2,2,0,0,2,0,0,0,0,0,0
"B-1481","1-methyl uric acid",-1.5614,"Cn1c(=O)[nH]c2[nH]c(=O)[nH]c2c1=O","CN1C(=O)NC2=C(NC(=O)N2)C1=O",-54.412137907289164,"Cn1c(=O)[nH]c2c([nH]c(=O)[nH]2)c1=O",-1.3500999999999996,90.53999999999999,182.043990052,7,3,0,3,3,5,7,13,19,0,2,0,0,2,0,0,2,0,0,0,0.16666666666666666
"B-1482","thiourea, 3-(nitrophenyl)-",-1.4499,"NC(=S)Nc1cccc([N+](=O)[O-])c1","NC(=S)Nc1cccc([N+](=O)[O-])c1",26.936226192698506,"NC(=S)Nc1cccc([N+](=O)[O-])c1",1.2503,81.19,197.025897464,5,3,2,2,3,0,6,13,20,0,1,1,0,0,0,0,0,1,0,0,0
"B-1483","1-ph-3,5-dime-4-nitrosopyrazole",-3.7355,"Cc1nn(-c2ccccc2)c(C)c1N=O","Cc1nn(-c2ccccc2)c(C)c1N=O",22.711577812088816,"Cc1nn(c2ccccc2)c(C)c1N=O",2.8870400000000016,47.25,201.090211972,4,0,2,0,4,0,4,15,26,0,2,2,0,0,1,0,0,1,0,0,0.18181818181818182
"B-1484","anthracene-9-carboxylic acid",-3.4174,"O=C([O-])c1c2ccccc2cc2ccccc12","O=C([O-])c1c2ccccc2cc2ccccc12",50.55102322547843,"O=C([O-])c1c2ccccc2cc2ccccc12",2.3565000000000005,40.129999999999995,221.06080310791,2,0,1,0,2,0,2,17,26,0,3,3,0,0,0,0,0,3,0,0,0
"B-1488","2,4,6-tri(tert-butyl)phenol",-3.875,"CC(C)(C)c1cc(C(C)(C)C)c(O)c(C(C)(C)C)c1","CC(C)(C)c1cc(C(C)(C)C)c(O)c(C(C)(C)C)c1",30.648273442647525,"CC(C)(C)c1cc(C(C)(C)C)c(O)c(C(C)(C)C)c1",5.284700000000006,20.23,262.22966558,1,1,0,1,1,0,1,19,49,0,1,1,0,0,0,0,0,1,0,0,0.6666666666666666
"B-1489","bensulide",-4.2014,"CC(C)OP(=S)(OC(C)C)SCCNS(=O)(=O)c1ccccc1","CC(C)OP(=S)(OC(C)C)SCCNS(=O)(=O)c1ccccc1",-99.68997640405958,"CC(C)OP(=S)(OC(C)C)SCCNS(=O)(=O)c1ccccc1",3.7726000000000024,64.63,397.06050787799995,5,1,10,1,6,0,9,23,47,0,1,1,0,0,0,0,0,1,0,0,0.5714285714285714
"B-1492","hexaethyl tetraphosphate",0.2956,"CCOP(=O)(OCC)OP(=O)(OCC)OP(=O)(OCC)OP(=O)(OCC)OCC","CCOP(=O)(OCC)OP(=O)(OCC)OP(=O)(OCC)OP(=O)(OCC)OCC",-520.3272117697753,"CCOP(=O)(OCC)OP(=O)(OCC)OP(=O)(OCC)OP(=O)(OCC)OCC",5.687600000000006,151.35,506.0636875399998,13,0,18,0,13,0,17,29,59,2,0,0,0,0,0,0,0,0,0,0,1
"B-1493","n-ethyl-n-nitrosourea",-0.9547,"CCN(N=O)C(N)=O","CCN(N=O)C(N)=O",-6.641034565767838,"CCN(N=O)C(=O)N",0.06840000000000013,75.75999999999999,117.053826464,5,2,2,1,3,2,5,8,15,0,0,0,0,0,0,0,0,0,0,0,0.6666666666666666
"B-1495","propanedioic acid, heptyl-",-2.0411,"CCCCCCCC(C(=O)[O-])C(=O)[O-]","CCCCCCCC(C(=O)[O-])C(=O)[O-]",44.473906901168114,"CCCCCCCC(C(=O)[O-])C(=O)[O-]",-0.5370999999999997,80.25999999999999,200.10595615182,4,0,8,0,4,0,4,14,30,0,0,0,0,0,0,0,0,0,0,0,0.8
"B-1496","octylmalonic acid",-2.92,"CCCCCCCCC(C(=O)[O-])C(=O)[O-]","CCCCCCCCC(C(=O)[O-])C(=O)[O-]",44.37156629018901,"CCCCCCCCC(C(=O)[O-])C(=O)[O-]",-0.14700000000000024,80.25999999999999,214.12160621582,4,0,9,0,4,0,4,15,33,0,0,0,0,0,0,0,0,0,0,0,0.8181818181818182
"B-1501","2,5-dimethyl-2,4-hexadiene",-3.537,"CC(C)=CC=C(C)C","CC(C)=CC=C(C)C",1.9772322531317423,"CC(=CC=C(C)C)C",2.918800000000002,0,110.109550448,0,0,1,0,0,0,0,8,22,0,0,0,0,0,0,0,0,0,0,0,0.5