"ID","Name","Solubility","SMILES Canonical","Smiles (Optimized Geometry)","Energy","Smiles","SlogP","TPSA","ExactMW","NumLipinskiHBA","NumLipinskiHBD","NumRotatableBonds","NumHBD","NumHBA","NumAmideBonds","NumHeteroAtoms","NumHeavyAtoms","NumAtoms","NumStereocenters","NumRings","NumAromaticRings","NumSaturatedRings","NumAliphaticRings","NumAromaticHeterocycles","NumSaturatedHeterocycles","NumAliphaticHeterocycles","NumAromaticCarbocycles","NumSaturatedCarbocycles","NumAliphaticCarbocycles","FractionCSP3"
"A-5155","1,3-dimethyl propanedioate",0.0273419683,"COC(=O)CC(=O)OC","COC(=O)CC(=O)OC",-37.97407682959364,"COC(=O)CC(=O)OC",-0.2775000000000001,52.60000000000001,132.042258736,4,0,2,0,4,0,4,9,17,0,0,0,0,0,0,0,0,0,0,0,0.6
"A-5160","1,1,3,3-tetramethylguanidine",0.9386229258,"CN(C)C(=[NH2+])N(C)C","CN(C)C(=[NH2+])N(C)C",-33.0999556180114,"CN(C)C(=[NH2+])N(C)C",-1.7752999999999974,32.07,116.11822386808998,3,2,0,1,0,0,3,8,22,0,0,0,0,0,0,0,0,0,0,0,0.8
"A-5161","1,3-dihydroxypropan-2-yl 2-sulfanylacetate 2,3-dihydroxypropyl 2-sulfanylacetate",0.7793742068,"O=C(CS)OCC(O)CO","O=C(CS)OCC(O)CO",19.152583159326078,"O=C(CS)OCC(O)CO",-1.1874,66.76,166.0299798,4,2,4,3,5,0,5,10,20,1,0,0,0,0,0,0,0,0,0,0,0.8
"A-5162","2-{2-[2-(2-hydroxyethoxy)ethoxy]ethoxy}ethan-1-ol",0.7116903978,"OCCOCCOCCOCCO","OCCOCCOCCOCCO",52.73424366156587,"OCCOCCOCCOCCO",-0.979199999999999,68.15,194.115423676,5,2,10,2,5,0,5,13,31,0,0,0,0,0,0,0,0,0,0,0,1
"A-5163","3-methylpentane-1,5-diol",0.927470714,"CC(CCO)CCO","CC(CCO)CCO",4.5054566305999675,"CC(CCO)CCO",0.38730000000000003,40.46,118.099379688,2,2,4,2,2,0,2,8,22,0,0,0,0,0,0,0,0,0,0,0,1
"A-5168","Sulfolane",-0.079806903,"O=S1(=O)CCCC1","O=S1(=O)CCCC1",3.0923795065450097,"O=S1(=O)CCCC1",0.19500000000000006,34.14,120.024500496,2,0,0,0,2,0,3,7,15,0,1,0,1,1,0,1,1,0,0,0,1
"A-5169","2-hydroxyethyl 2-methylprop-2-enoate",-0.1144208137,"C=C(C)C(=O)OCCO","C=C(C)C(=O)OCCO",-13.016652189745223,"C=C(C)C(=O)OCCO",0.09800000000000003,46.53,130.06299418,3,1,3,1,3,0,3,9,19,0,0,0,0,0,0,0,0,0,0,0,0.5
"A-5172","3-methoxy-3-methylbutan-1-ol",-0.072529286,"COC(C)(C)CCO","COC(C)(C)CCO",2.7083507206420627,"COC(C)(C)CCO",0.7938000000000001,29.46,118.099379688,2,1,3,1,2,0,2,8,22,0,0,0,0,0,0,0,0,0,0,0,1
"A-5179","6-[(1-formyloctyl)amino]hexanoic acid",-2.7708536118,"CC(C)CCCCCC(=O)NCCCCCC(=O)[O-]","CC(C)CCCCCC(=O)NCCCCCC(=O)[O-]",-8.917043675367877,"CC(C)CCCCCC(=O)NCCCCCC(=O)[O-]",2.0194,69.23,270.20746733591,4,1,12,1,3,1,4,19,47,0,0,0,0,0,0,0,0,0,0,0,0.8666666666666667
"A-5182","nonanoic acid",-2.7221977641,"CCCCCCCCC(=O)[O-]","CCCCCCCCC(=O)[O-]",2.8580377628941593,"CCCCCCCCC(=O)[O-]",1.4868999999999999,40.129999999999995,157.12340336391,2,0,7,0,2,0,2,11,28,0,0,0,0,0,0,0,0,0,0,0,0.8888888888888888
"A-5183","6-hydroxy-2-naphthoic acid",-3.2789428853,"O=C([O-])c1ccc2cc(O)ccc2c1","O=C([O-])c1ccc2cc(O)ccc2c1",29.899510239707205,"O=C([O-])c1ccc2cc(O)ccc2c1",0.9088999999999998,60.36,187.04006766391,3,1,1,1,3,0,3,14,21,0,2,2,0,0,0,0,0,2,0,0,0
"A-5185","1-tert-butyl-4-vinylbenzene",-4.5633510279,"C=Cc1ccc(C(C)(C)C)cc1","C=Cc1ccc(C(C)(C)C)cc1",22.888846833612895,"C=Cc1ccc(C(C)(C)C)cc1",3.627100000000002,0,160.125200512,0,0,1,0,0,0,0,12,28,0,1,1,0,0,0,0,0,1,0,0,0.3333333333333333
"A-5188","2,5-diphenyl-1,3-oxazole",-5.5532102962,"c1ccc(-c2cnc(-c3ccccc3)o2)cc1","c1ccc(-c2cnc(-c3ccccc3)o2)cc1",32.72202349726295,"c1ccc(c2cnc(c3ccccc3)o2)cc1",4.008600000000002,26.03,221.084063972,2,0,2,0,2,0,2,17,28,0,3,3,0,0,1,0,0,2,0,0,0
"A-5190","2-amino-2-ethylpropane-1,3-diol",0.9015785325,"CCC([NH3+])(CO)CO","CCC([NH3+])(CO)CO",-18.708387574688132,"CCC([NH3+])(CO)CO",-1.6382999999999992,68.10000000000001,120.10190510809,3,5,3,3,2,0,3,8,22,0,0,0,0,0,0,0,0,0,0,0,1
"A-5195","1,3,5-tris(oxiran-2-ylmethyl)-1,3,5-triazinane-2,4,6-trione",-1.495423095,"O=c1n(CC2CO2)c(=O)n(CC2CO2)c(=O)n1CC1CO1","O=C1N(CC2CO2)C(=O)N(CC2CO2)C(=O)N1CC1CO1",-218.09482044323948,"O=c1n(CC2CO2)c(=O)n(CC2CO2)c(=O)n1CC1CO1",-0.5375999999999994,98.52,297.0960852,9,0,6,0,6,6,9,21,36,3,4,0,4,4,0,4,4,0,0,0,0.75
"A-5196","2,4,6-tris[(dimethylamino)methyl]phenol",0.5055163708,"C[NH+](C)Cc1cc(C[NH+](C)C)c(O)c(C[NH+](C)C)c1","C[NH+](C)Cc1cc(C[NH+](C)C)c(O)c(C[NH+](C)C)c1",115.6203928112756,"C[NH+](C)Cc1cc(C[NH+](C)C)c(O)c(C[NH+](C)C)c1",-2.6742999999999943,33.55,268.23724184027,4,4,6,4,1,0,4,19,49,0,1,1,0,0,0,0,0,1,0,0,0.6
"A-5198","2-[2-(carboxymethoxy)ethoxy]acetic acid",0.6709250275,"O=C([O-])COCCOCC(=O)[O-]","O=C([O-])COCCOCC(=O)[O-]",165.116592318635,"O=C([O-])COCCOCC(=O)[O-]",-3.480599999999998,98.72,176.03318513582002,6,0,7,0,6,0,6,12,20,0,0,0,0,0,0,0,0,0,0,0,0.6666666666666666
"A-5199","N-(methoxymethyl)-2-methylprop-2-enamide",0.7919653131,"C=C(C)C(=O)NCOC","C=C(C)C(=O)NCOC",-35.93237089916769,"C=C(C)C(=O)NCOC",0.2826,38.33,129.078978592,3,1,3,1,2,1,3,9,20,0,0,0,0,0,0,0,0,0,0,0,0.5
"A-5202","N-butyl-2,2,6,6-tetramethylpiperidin-4-amine",0.5746150304,"CCCC[NH2+]C1CC(C)(C)[NH2+]C(C)(C)C1","CCCC[NH2+]C1CC(C)(C)[NH2+]C(C)(C)C1",51.9672688082427,"CCCC[NH2+]C1CC(C)(C)[NH2+]C(C)(C)C1",0.6329000000000018,33.22,214.23980180017998,2,4,4,2,0,0,2,15,45,0,1,0,1,1,0,1,1,0,0,0,1
"A-5210","N,N,N',N'-tetrakis(2-hydroxypropyl)hexanediamide",0.2109933627,"CC(O)CN(CC(C)O)C(=O)CCCCC(=O)N(CC(C)O)CC(C)O","CC(O)CN(CC(C)O)C(=O)CCCCC(=O)N(CC(C)O)CC(C)O",5.81582520670905,"CC(O)CN(CC(C)O)C(=O)CCCCC(=O)N(CC(C)O)CC(C)O",-0.2727999999999981,121.54,376.25733687199994,8,4,13,4,6,2,8,26,62,4,0,0,0,0,0,0,0,0,0,0,0.8888888888888888
"A-5211","3-sulfanylpropanoic acid",0.754917543,"O=C([O-])CCS","O=C([O-])CCS",-14.10775103269657,"O=C([O-])CCS",-0.9438,40.129999999999995,105.00157397991,2,0,2,1,3,0,3,6,11,0,0,0,0,0,0,0,0,0,0,0,0.6666666666666666
"A-5214","(3S)-3-hydroxy-4,4-dimethyloxolan-2-one",0.6515307225,"CC1(C)COC(=O)C1O","CC1(C)COC(=O)C1O",16.70253046792192,"CC1(C)COC(=O)C1O",-0.06969999999999993,46.53,130.06299418,3,1,0,1,3,0,3,9,19,1,1,0,1,1,0,1,1,0,0,0,0.8333333333333334
"A-5216","2-({2-[2-(dimethylamino)ethoxy]ethyl}(methyl)amino)ethan-1-ol",0.4764657364,"C[NH+](C)CCOCC[NH+](C)CCO","C[NH+](C)CCOCC[NH+](C)CCO",84.02791444146983,"C[NH+](C)CCOCC[NH+](C)CCO",-3.3454999999999955,38.34,192.18268084817998,4,3,8,3,2,0,4,13,37,1,0,0,0,0,0,0,0,0,0,0,1
"A-5218","1-(2-aminoethyl)imidazolidin-2-one",0.6335459397,"[NH3+]CCN1CCNC1=O","[NH3+]CCN1CCNC1=O",-44.36745521462157,"[NH3+]CCN1CCNC1=O",-1.7464999999999986,59.980000000000004,130.09748842409,4,4,2,2,1,2,4,9,21,0,1,0,1,1,0,1,1,0,0,0,0.8
"A-5226","(2R)-2,4-dihydroxy-N-(3-hydroxypropyl)-3,3-dimethylbutanamide",0.3944261529,"CC(C)(CO)[C@@H](O)C(=O)NCCCO","CC(C)(CO)[C@@H](O)C(=O)NCCCO",5.177062040996175,"CC(C)(CO)[C@@H](O)C(=O)NCCCO",-1.1355999999999997,89.79,205.131408088,5,4,6,4,4,1,5,14,33,1,0,0,0,0,0,0,0,0,0,0,0.8888888888888888
"A-5227","(3-{3,5-bis[3-(dimethylamino)propyl]-1,3,5-triazinan-1-yl}propyl)dimethylamine",0.1642130702,"C[NH+](C)CCCN1CN(CCC[NH+](C)C)C[NH+](CCC[NH+](C)C)C1","C[NH+](C)CCCN1CN(CCC[NH+](C)C)C[NH+](CCC[NH+](C)C)C1",72.22238700499966,"C[NH+](C)CCCN1CN(CCC[NH+](C)C)C[NH+](CCC[NH+](C)C)C1",-5.034800000000009,24.240000000000006,346.37620115235995,6,4,12,4,2,0,6,24,70,0,1,0,1,1,0,1,1,0,0,0,1
"A-5230","1-[bis(2-hydroxypropyl)amino]propan-2-ol",0.4173208759,"CC(O)C[NH+](CC(C)O)CC(C)O","CC(O)C[NH+](CC(C)O)CC(C)O",27.551244741008333,"CC(O)C[NH+](CC(C)O)CC(C)O",-1.9862999999999975,65.13000000000001,192.15941998409,4,4,6,4,3,0,4,13,35,3,0,0,0,0,0,0,0,0,0,0,1
"A-5233","3,5-dimethyl-1,2-dioxolane-3,5-diol",0.5714408419,"CC1(O)CC(C)(O)OO1","CC1(O)CC(C)(O)OO1",1.1564620249727016,"CC1(O)CC(C)(O)OO1",-0.24470000000000008,58.92,134.0579088,4,2,0,2,4,0,4,9,19,2,1,0,1,1,0,1,1,0,0,0,1
"A-5234","3,6,9,12-tetraazatetradecane-1,14-diamine",0.3327787326,"NCC[NH2+]CCNCCNCCNCC[NH3+]","NCC[NH2+]CCNCCNCCNCC[NH3+]",56.100015024587435,"NCC[NH2+]CCNCCNCCNCC[NH3+]",-4.480799999999999,106.36,234.25209780017997,6,10,13,6,4,0,6,16,46,0,0,0,0,0,0,0,0,0,0,0,1
"A-5235","N,N-dimethyl-N'-(2,2,6,6-tetramethylpiperidin-4-yl)propane-1,3-diamine",0.316191362,"C[NH+](C)CCC[NH2+]C1CC(C)(C)[NH2+]C(C)(C)C1","C[NH+](C)CCC[NH2+]C1CC(C)(C)[NH2+]C(C)(C)C1",134.18887184189234,"C[NH+](C)CCC[NH2+]C1CC(C)(C)[NH2+]C(C)(C)C1",-1.6325999999999945,37.66,244.27362734827,3,5,5,3,0,0,3,17,51,0,1,0,1,1,0,1,1,0,0,0,1
"A-5246","2,2,4-trimethylhexane-1,6-diamine",0.4781562173,"CC(CC[NH3+])CC(C)(C)C[NH3+]","CC(CC[NH3+])CC(C)(C)C[NH3+]",54.13019471540167,"CC(CC[NH3+])CC(C)(C)C[NH3+]",-0.08729999999999849,55.28,160.19285160817998,2,6,5,2,0,0,2,11,35,1,0,0,0,0,0,0,0,0,0,0,1
"A-5262","2,2',2''-nitrilotriacetonitrile",-1.6475578342,"N#CCN(CC#N)CC#N","N#CCN(CC#N)CC#N",60.05164207098461,"N#CCN(CC#N)CC#N",-0.14085999999999999,74.61,134.059246192,4,0,3,0,4,0,4,10,16,0,0,0,0,0,0,0,0,0,0,0,0.5
"A-5264","propan-2-yl acetate",-0.5467680909,"CC(=O)OC(C)C","CC(=O)OC(C)C",-10.930902191887373,"CC(=O)OC(C)C",0.9579,26.3,102.06807956,2,0,1,0,2,0,2,7,17,0,0,0,0,0,0,0,0,0,0,0,0.8
"A-5265","2-[(acetyloxy)methyl]prop-2-en-1-yl acetate",-0.7796166704,"C=C(COC(C)=O)COC(C)=O","C=C(COC(C)=O)COC(C)=O",-45.795222246532006,"C=C(COC(=O)C)COC(=O)C",0.6688000000000001,52.6,172.073558864,4,0,4,0,4,0,4,12,24,0,0,0,0,0,0,0,0,0,0,0,0.5
"A-5266","O,O-bis(2-methylphenyl) hydrogen dithiophosphate",-1.0605299646,"Cc1ccccc1OP(=S)(S)Oc1ccccc1C","Cc1ccccc1OP(=S)(S)Oc1ccccc1C",20.433406452923165,"Cc1ccccc1OP(=S)(S)Oc1ccccc1C",4.915540000000004,18.46,310.02510835000004,2,0,4,1,3,0,5,19,34,0,2,2,0,0,0,0,0,2,0,0,0.14285714285714285
"A-5267","2-[3-(4-propylheptyl)morpholin-4-yl]ethan-1-ol hydrochloride",0.9642581623,"CCCC(CCC)CCCC1COCC[NH+]1CCO","CCCC(CCC)CCCC1COCC[NH+]1CCO",70.26137930436406,"CCCC(CCC)CCCC1COCC[NH+]1CCO",1.6490999999999996,33.900000000000006,272.25840574809,3,2,10,2,2,0,3,19,53,2,1,0,1,1,0,1,1,0,0,0,1
"A-5276","[4-(aminomethyl)phenyl]methanamine",1.1750718055,"[NH3+]Cc1ccc(C[NH3+])cc1","[NH3+]Cc1ccc(C[NH3+])cc1",60.13126745617902,"[NH3+]Cc1ccc(C[NH3+])cc1",-0.8295999999999994,55.28,138.11460128817998,2,6,2,2,0,0,2,10,24,0,1,1,0,0,0,0,0,1,0,0,0.25
"A-5277","(3R,3aR,6S,6aR)-3,6-dimethoxy-hexahydrofuro[3,2-b]furan",1.0599918174,"COC1COC2C(OC)COC12","COC1COC2C(OC)COC12",80.56428681539671,"COC1COC2C(OC)COC12",-0.18600000000000017,36.92,174.089208928,4,0,2,0,4,0,4,12,26,4,2,0,2,2,0,2,2,0,0,0,1
"A-5282","bis(3-aminopropyl)(dodecyl)amine",-0.1977113735,"CCCCCCCCCCCC[NH+](CCC[NH3+])CCC[NH3+]","CCCCCCCCCCCC[NH+](CCC[NH3+])CCC[NH3+]",135.3104172857958,"CCCCCCCCCCCC[NH+](CCC[NH3+])CCC[NH3+]",1.056200000000005,59.72,302.35187766827,3,7,17,3,0,0,3,21,65,0,0,0,0,0,0,0,0,0,0,0,1
"A-5299","3-hydroxy-2-(hydroxymethyl)-2-methylpropanal",0.9289333763,"CC(C=O)(CO)CO","CC(C=O)(CO)CO",-19.84508915638516,"CC(C=O)(CO)CO",-0.8238000000000001,57.53,118.06299418,3,2,3,2,3,0,3,8,18,0,0,0,0,0,0,0,0,0,0,0,0.8
"A-5303","(3-aminopropyl)dimethylamine",0.9906298514,"C[NH+](C)CCC[NH3+]","C[NH+](C)CCC[NH3+]",46.39336573960893,"C[NH+](C)CCC[NH3+]",-2.237099999999997,32.08,104.13025135217998,2,4,3,2,0,0,2,7,23,0,0,0,0,0,0,0,0,0,0,0,1
"A-5305","(5-ethyl-1,3-dioxan-5-yl)methanol",0.8350942171,"CCC1(CO)COCOC1","CCC1(CO)COCOC1",-15.628305416847155,"CCC1(CO)COCOC1",0.3794,38.69,146.094294308,3,1,2,1,3,0,3,10,24,0,1,0,1,1,0,1,1,0,0,0,1
"A-5307","9,9-dimethyldecanoic acid",-2.1113969493,"CC(C)(C)CCCCCCCC(=O)[O-]","CC(C)(C)CCCCCCCC(=O)[O-]",5.871381738224213,"CC(C)(C)CCCCCCCC(=O)[O-]",2.5131000000000006,40.129999999999995,199.17035355591,2,0,7,0,2,0,2,14,37,0,0,0,0,0,0,0,0,0,0,0,0.9166666666666666
"A-5308","1,3-dimethyltetrahydropyrimidin-2(1H)-one",0.8921966739,"CN1CCCN(C)C1=O","CN1CCCN(C)C1=O",-86.22216287264524,"CN1CCCN(C)C1=O",0.3736999999999999,23.55,128.094963004,3,0,0,0,1,2,3,9,21,0,1,0,1,1,0,1,1,0,0,0,0.8333333333333334
"A-5310","1,4-diazabicyclo[2.2.2]octan-2-ylmethanol",0.8470942954,"OCC1CN2CC[NH+]1CC2","OCC1CN2CC[NH+]1CC2",138.7430005411357,"OCC1CN2CC[NH+]1CC2",-2.4385999999999965,27.91,143.11788952009,3,2,1,2,2,0,3,10,25,1,3,0,3,3,0,3,3,0,0,0,1
"A-5311","1,4-dimethylpiperazine",0.9423643206,"CN1CC[NH+](C)CC1","CN1CC[NH+](C)CC1",72.73879384898103,"CN1CC[NH+](C)CC1",-1.5534999999999979,7.680000000000001,115.12297490008999,2,1,0,1,1,0,2,8,23,0,1,0,1,1,0,1,1,0,0,0,1
"A-5312","1-ethoxy-2-(2-methoxyethoxy)ethane",0.8291459355,"CCOCCOCCOC","CCOCCOCCOC",28.170846747045996,"CCOCCOCCOC",0.6859,27.69,148.109944372,3,0,7,0,3,0,3,10,26,0,0,0,0,0,0,0,0,0,0,0,1
"A-5313","1-ethylpyrrolidin-2-one",0.9463070612,"CCN1CCCC1=O","CCN1CCCC1=O",-18.671378494503077,"CCN1CCCC1=O",0.6287,20.310000000000002,113.084063972,2,0,1,0,1,1,2,8,19,0,1,0,1,1,0,1,1,0,0,0,0.8333333333333334
"A-5314","1-hydroxypropan-2-yl prop-2-enoate 2-hydroxypropyl prop-2-enoate",0.8855791863,"C=CC(=O)OCCCO","C=CC(=O)OCCCO",-12.667789140902052,"C=CC(=O)OCCCO",0.09799999999999992,46.53,130.06299418,3,1,4,1,3,0,3,9,19,0,0,0,0,0,0,0,0,0,0,0,0.5
"A-5316","1-{bis[3-(dimethylamino)propyl]amino}propan-2-ol",0.6101059749,"CC(O)C[NH+](CCC[NH+](C)C)CCC[NH+](C)C","CC(O)C[NH+](CCC[NH+](C)C)CCC[NH+](C)C",137.21806361260326,"CC(O)C[NH+](CCC[NH+](C)C)CCC[NH+](C)C",-3.678699999999994,33.550000000000004,248.26854196826997,4,4,10,4,1,0,4,17,51,1,0,0,0,0,0,0,0,0,0,0,1
"A-5317","2,2'-oxydiethanamine",0.9823282162,"[NH3+]CCOCC[NH3+]","[NH3+]CCOCC[NH3+]",56.90693669956752,"[NH3+]CCOCC[NH3+]",-2.5131999999999985,64.51,106.10951590817999,3,6,4,2,1,0,3,7,21,0,0,0,0,0,0,0,0,0,0,0,1
"A-5318","2,5,8,11,14-pentaoxapentadecane",0.6530976581,"COCCOCCOCCOCCOC","COCCOCCOCCOCCOC",56.666838992969915,"COCCOCCOCCOCCOC",0.32900000000000085,46.150000000000006,222.146723804,5,0,12,0,5,0,5,15,37,0,0,0,0,0,0,0,0,0,0,0,1
"A-5319","2,5,8,11-tetraoxadodecane",0.7490240663,"COCCOCCOCCOC","COCCOCCOCCOC",42.4461997025608,"COCCOCCOCCOC",0.3124,36.92,178.120509056,4,0,9,0,4,0,4,12,30,0,0,0,0,0,0,0,0,0,0,0,1
"A-5320","2,6-dimethylmorpholine",0.9386380084,"CC1C[NH2+]CC(C)O1","CC1C[NH2+]CC(C)O1",36.61033447390322,"CC1C[NH2+]CC(C)O1",-0.6429999999999998,25.84,116.10699048808999,2,2,0,1,1,0,2,8,22,2,1,0,1,1,0,1,1,0,0,0,1
"A-5324","2-methylpentanedioic acid",0.8352249535,"CC(CCC(=O)[O-])C(=O)[O-]","CC(CCC(=O)[O-])C(=O)[O-]",63.11024965575613,"CC(CCC(=O)[O-])C(=O)[O-]",-2.0974999999999984,80.25999999999999,144.04335589582,4,0,4,0,4,0,4,10,18,1,0,0,0,0,0,0,0,0,0,0,0.6666666666666666
"A-5325","2-oxobutanedioic acid",0.8791925338,"O=C([O-])CC(=O)C(=O)[O-]","O=C([O-])CC(=O)C(=O)[O-]",119.70942647039763,"O=C([O-])CC(=O)C(=O)[O-]",-3.5545999999999998,97.33,129.99132032382002,5,0,3,0,5,0,5,9,11,0,0,0,0,0,0,0,0,0,0,0,0.25
"A-5326","3-(2,3-dihydroxypropoxy)propane-1,2-diol",0.7794395395,"OCC(O)COCC(O)CO","OCC(O)COCC(O)CO",37.87396797456871,"OCC(O)COCC(O)CO",-2.290599999999999,90.15,166.084123548,5,4,6,4,5,0,5,11,25,2,0,0,0,0,0,0,0,0,0,0,1
"A-5328","3-[3-(hydroxymethyl)-2,5-dioxoimidazolidin-4-yl]-1-[({[3-(hydroxymethyl)-2,5-dioxoimidazolidin-4-yl]carbamoyl}amino)methyl]urea",0.4108359648,"O=C(NCNC(=O)NC1C(=O)NC(=O)N1CO)NC1C(=O)NC(=O)N1CO","O=C(NCNC(=O)NC1C(=O)NC(=O)N1CO)NC1C(=O)NC(=O)N1CO",-241.98103911098886,"O=C(NCNC(=O)NC1C(=O)NC(=O)N1CO)NC1C(=O)NC(=O)N1CO",-4.802299999999996,221.54,388.10910947199994,16,8,6,8,8,10,16,27,43,2,2,0,2,2,0,2,2,0,0,0,0.45454545454545453
"A-5332","3-oxobutanamide",0.9952273665,"CC(=O)CC(N)=O","CC(=O)CC(N)=O",-15.476605276413554,"CC(=O)CC(=O)N",-0.5492000000000001,60.160000000000004,101.047678464,3,2,2,1,2,1,3,7,14,0,0,0,0,0,0,0,0,0,0,0,0.5
"A-5333","4-(hydroxymethyl)-1,3-dioxolan-2-one",0.9277942328,"O=C1OCC(CO)O1","O=C1OCC(CO)O1",-14.833508636208428,"O=C1OCC(CO)O1",-0.48590000000000005,55.760000000000005,118.02660867200001,4,1,1,1,4,0,4,8,14,1,1,0,1,1,0,1,1,0,0,0,0.75
"A-5334","4-acetylmorpholine",0.8888753261,"CC(=O)N1CCOCC1","CC(=O)N1CCOCC1",27.71135323270129,"CC(=O)N1CCOCC1",-0.13490000000000002,29.540000000000003,129.078978592,3,0,0,0,2,1,3,9,20,0,1,0,1,1,0,1,1,0,0,0,0.8333333333333334
"A-5335","Glycerol, ethoxylated",0.6492617384,"OCCOCC(COCCO)OCCO","OCCOCC(COCCO)OCCO",62.60156185351058,"OCCOCC(COCCO)OCCO",-1.6182999999999987,88.38000000000001,224.12598836,6,3,11,3,6,0,6,15,35,0,0,0,0,0,0,0,0,0,0,0,1
"A-5337","N,N-dimethyl-3-oxobutanamide",0.8888753261,"CC(=O)CC(=O)N(C)C","CC(=O)CC(=O)N(C)C",-27.69740665144008,"CC(=O)CC(=O)N(C)C",0.05370000000000008,37.38,129.078978592,3,0,2,0,2,1,3,9,20,0,0,0,0,0,0,0,0,0,0,0,0.6666666666666666
"A-5338","N-[3-(dimethylamino)propyl]formamide",0.8854190372,"C[NH+](C)CCCNC=O","C[NH+](C)CCCNC=O",-26.89647931591993,"C[NH+](C)CCCNC=O",-1.732999999999998,33.54,131.11788952009,3,2,5,2,1,1,3,9,24,0,0,0,0,0,0,0,0,0,0,0,0.8333333333333334
"A-5345","bis(3-aminopropyl)(methyl)amine",0.8378838589,"C[NH+](CCC[NH3+])CCC[NH3+]","C[NH+](CCC[NH3+])CCC[NH3+]",139.66917134643757,"C[NH+](CCC[NH3+])CCC[NH3+]",-3.234899999999997,59.72,148.17972696426997,3,7,6,3,0,0,3,10,32,0,0,0,0,0,0,0,0,0,0,0,1
"A-5354","ethane-1,2-diylbis(oxyethane-2,1-diyl) diacetate",0.6303241084,"CC(=O)OCCOCCOCCOC(C)=O","CC(=O)OCCOCCOCCOC(C)=O",17.539007431816774,"CC(=O)OCCOCCOCCOC(=O)C",0.14579999999999949,71.06,234.110338296,6,0,9,0,6,0,6,16,34,0,0,0,0,0,0,0,0,0,0,0,0.8
"A-5355","ethyl 4-oxopiperidine-1-carboxylate",0.7665063868,"CCOC(=O)N1CCC(=O)CC1","CCOC(=O)N1CCC(=O)CC1",-63.77243514737399,"CCOC(=O)N1CCC(=O)CC1",0.8078,46.61,171.089543276,4,0,1,0,3,1,4,12,25,0,1,0,1,1,0,1,1,0,0,0,0.75
"A-5359","nadide",0.1782048938,"NC(=O)c1ccc[n+](C2OC(COP(=O)([O-])OP(=O)([O-])OCC3OC(n4cnc5c(N)ncnc54)C(O)C3O)C(O)C2O)c1","NC(=O)c1ccc[n+](C2OC(COP(=O)([O-])OP(=O)([O-])OCC3OC(n4cnc5c(N)ncnc54)C(O)C3O)C(O)C2O)c1",-254.7432472640363,"NC(=O)c1ccc[n+](C2OC(COP(=O)([O-])OP(=O)([O-])OCC3OC(n4cnc5c(N)ncnc45)C(O)C3O)C(O)C2O)c1",-4.279899999999994,323.9200000000001,662.1018453519102,21,8,11,6,19,1,23,44,70,10,5,3,2,2,3,2,2,0,0,0,0.47619047619047616
"A-5361","oxepan-2-one",0.9425469123,"O=C1CCCCCO1","O=C1CCCCCO1",1.9987600184207597,"O=C1CCCCCO1",1.1036000000000001,26.3,114.06807956,2,0,0,0,2,0,2,8,18,0,1,0,1,1,0,1,1,0,0,0,0.8333333333333334
"A-5370","pyridin-3-ylmethanol",0.9620638041,"OCc1cccnc1","OCc1cccnc1",3.2820257594521185,"OCc1cccnc1",0.5739,33.120000000000005,109.052763844,2,1,1,1,2,0,2,8,15,0,1,1,0,0,1,0,0,0,0,0,0.16666666666666666
"A-5379","tert-butyl isobutyl ether",0.8852856246,"CC(C)COC(C)(C)C","CC(C)COC(C)(C)C",5.610948832174257,"CC(C)COC(C)(C)C",2.4575000000000005,9.23,130.135765196,1,0,2,0,1,0,1,9,27,0,0,0,0,0,0,0,0,0,0,0,1
"A-5385","2,2,6,6-tetramethylpiperidin-4-ol",-0.1966099864,"CC1(C)CC(O)CC(C)(C)[NH2+]1","CC1(C)CC(O)CC(C)(C)[NH2+]1",-5.71369634059186,"CC1(C)CC(O)CC(C)(C)[NH2+]1",0.26169999999999993,36.84,158.15394068009,2,3,0,2,1,0,2,11,31,0,1,0,1,1,0,1,1,0,0,0,1
"A-5386","2-(piperazin-1-yl)ethan-1-amine",-0.1112860429,"[NH3+]CCN1CC[NH2+]CC1","[NH3+]CCN1CC[NH2+]CC1",122.88417132754319,"[NH3+]CCN1CC[NH2+]CC1",-2.892699999999998,47.49,131.14115038417998,3,5,2,2,1,0,3,9,26,0,1,0,1,1,0,1,1,0,0,0,1
"A-5387","2-(propan-2-yloxy)ethan-1-ol",-0.0176551044,"CC(C)OCCO","CC(C)OCCO",14.503022424516512,"CC(C)OCCO",0.4037,29.46,104.083729624,2,1,3,1,2,0,2,7,19,0,0,0,0,0,0,0,0,0,0,0,1
"A-5388","3-[(2-hydroxyethyl)amino]propanamide",-0.1211098882,"NC(=O)CC[NH2+]CCO","NC(=O)CC[NH2+]CCO",-29.40078534498756,"NC(=O)CC[NH2+]CCO",-2.5824999999999982,79.93,133.09715407609,4,5,5,3,2,1,4,9,22,0,0,0,0,0,0,0,0,0,0,0,0.8
"A-5391","dimethyl methylphosphonate",-0.0936877841,"COP(C)(=O)OC","COP(C)(=O)OC",-35.346310840849284,"COP(=O)(C)OC",1.1020999999999999,35.53,124.028930778,3,0,2,0,3,0,4,7,16,0,0,0,0,0,0,0,0,0,0,0,1
"A-5396","1,1,1,2,2,4,5,5,5-nonafluoro-4-(trifluoromethyl)pentan-3-one",-1.4997434273,"O=C(C(F)(F)C(F)(F)F)C(F)(C(F)(F)F)C(F)(F)F","O=C(C(F)(F)C(F)(F)F)C(F)(C(F)(F)F)C(F)(F)F",-32.231624814495774,"O=C(C(F)(F)C(F)(F)F)C(F)(C(F)(F)F)C(F)(F)F",3.586,17.07,315.97575326000003,1,0,2,0,1,0,13,19,19,0,0,0,0,0,0,0,0,0,0,0,0.8333333333333334
"A-5402","N,N-bis(2-hydroxyethyl)undec-10-enamide",-2.7615135856,"C=CCCCCCCCCC(=O)N(CCO)CCO","C=CCCCCCCCCC(=O)N(CCO)CCO",2.8177244237855286,"C=CCCCCCCCCC(=O)N(CCO)CCO",2.1064000000000003,60.77000000000001,271.214743788,4,2,13,2,3,1,4,19,48,0,0,0,0,0,0,0,0,0,0,0,0.8