"ID","Name","Solubility","SMILES Canonical","Smiles (Optimized Geometry)","Energy","Smiles","SlogP","TPSA","ExactMW","NumLipinskiHBA","NumLipinskiHBD","NumRotatableBonds","NumHBD","NumHBA","NumAmideBonds","NumHeteroAtoms","NumHeavyAtoms","NumAtoms","NumStereocenters","NumRings","NumAromaticRings","NumSaturatedRings","NumAliphaticRings","NumAromaticHeterocycles","NumSaturatedHeterocycles","NumAliphaticHeterocycles","NumAromaticCarbocycles","NumSaturatedCarbocycles","NumAliphaticCarbocycles","FractionCSP3"
"A-2869","2-hexoxypropane-1,3-diol",-1.0558122117,"CCCCCCOC(CO)CO","CCCCCCOC(CO)CO",25.25027820880384,"CCCCCCOC(CO)CO",0.9364999999999999,49.69,176.1412445,3,2,8,2,3,0,3,12,32,0,0,0,0,0,0,0,0,0,0,0,1
"A-2873","4-[(3S)-3-ethenyl-3,7-dimethylocta-1,6-dienyl]phenol",-6.3370173812,"C=C[C@@](C)(C=Cc1ccc(O)cc1)CCC=C(C)C","C=C[C@@](C)(C=Cc1ccc(O)cc1)CCC=C(C)C",20.839106663359924,"C=C[C@@](C)(C=Cc1ccc(O)cc1)CCC=C(C)C",5.344100000000004,20.23,256.182715388,1,1,6,1,1,0,1,19,43,1,1,1,0,0,0,0,0,1,0,0,0.3333333333333333
"A-2875","(3-methoxy-3-methylbutyl) acetate",-0.4390291979,"COC(C)(C)CCOC(C)=O","COC(C)(C)CCOC(C)=O",-7.940391415667928,"COC(C)(C)CCOC(=O)C",1.3646,35.53,160.109944372,3,0,4,0,3,0,3,11,27,0,0,0,0,0,0,0,0,0,0,0,0.875
"A-2885","(2,5-dioxoimidazolidin-4-yl)urea",-1.5087824857,"NC(=O)NC1NC(=O)NC1=O","NC(=O)NC1NC(=O)NC1=O",-52.144754180376864,"NC(=O)NC1NC(=O)NC1=O",-2.1798,113.32,158.043990052,7,5,1,4,3,5,7,11,17,1,1,0,1,1,0,1,1,0,0,0,0.25
"A-2893","N-phenyl-N-(piperidin-4-yl)propanamide",-0.8352255084,"CCC(=O)N(c1ccccc1)C1CC[NH2+]CC1","CCC(=O)N(c1ccccc1)C1CC[NH2+]CC1",-9.891183859813065,"CCC(=O)N(c1ccccc1)C1CC[NH2+]CC1",1.1554,36.92,233.16483971209,3,2,3,1,1,1,3,17,38,0,2,1,1,1,0,1,1,1,0,0,0.5
"A-2895","1,3-dihydroxypropan-2-yl octanoate 2,3-dihydroxypropyl octanoate",0.1794741305,"CCCCCCCC(=O)OCC(O)CO","CCCCCCCC(=O)OCC(O)CO",-1.109175762981124,"CCCCCCCC(=O)OCC(O)CO",1.2433,66.76,218.151809184,4,2,9,2,4,0,4,15,37,1,0,0,0,0,0,0,0,0,0,0,0.9090909090909091
"A-2901","3-[(1R,3R)-3-[(dimethylcarbamoylamino)methyl]-3,5,5-trimethylcyclohexyl]-1,1-dimethylurea",-1.8938187529,"CN(C)C(=O)NC[C@@]1(C)C[C@H](NC(=O)N(C)C)CC(C)(C)C1","CN(C)C(=O)NC[C@@]1(C)C[C@H](NC(=O)N(C)C)CC(C)(C)C1",-92.19531947320448,"CN(C)C(=O)NC[C@@]1(C)C[C@H](NC(=O)N(C)C)CC(C)(C)C1",2.1138,64.68,312.252526264,6,2,3,2,2,4,6,22,54,2,1,0,1,1,0,0,0,0,1,1,0.875
"A-2904","2-[(carbamoylmethyl)(carboxymethyl)amino]acetic acid",-1.7635818574,"NC(=O)C[NH+](CC(=O)[O-])CC(=O)[O-]","NC(=O)C[NH+](CC(=O)[O-])CC(=O)[O-]",19.858412609989543,"NC(=O)C[NH+](CC(=O)[O-])CC(=O)[O-]",-6.1435999999999975,127.78999999999999,189.05169496791,7,3,6,2,5,1,7,13,22,0,0,0,0,0,0,0,0,0,0,0,0.5
"A-2907","3-[(2-carboxyethyl)sulfanyl]propanoic acid",-0.7991431977,"O=C([O-])CCSCCC(=O)[O-]","O=C([O-])CCSCCC(=O)[O-]",17.871891481057794,"O=C([O-])CCSCCC(=O)[O-]",-2.000399999999998,80.25999999999999,176.01542689582,4,0,6,0,5,0,5,11,19,0,0,0,0,0,0,0,0,0,0,0,0.6666666666666666
"A-2908","N-Butylphosphorothioic triamide",-0.7730339165,"CCCCNP(N)(N)=S","CCCCNP(N)(N)=S",-21.588372688655298,"CCCCNP(=S)(N)N",0.518,64.07,167.064605078,3,5,4,3,1,0,5,9,23,0,0,0,0,0,0,0,0,0,0,0,1
"A-2918","4-methyl-2-(2-methylpropyl)oxan-4-ol",2.1376816201,"CC(C)CC1CC(C)(O)CCO1","CC(C)CC1CC(C)(O)CCO1",7.2177958267330595,"CC(C)CC1CC(C)(O)CCO1",1.9625,29.46,172.14632988,2,1,2,1,2,0,2,12,32,2,1,0,1,1,0,1,1,0,0,0,1
"A-2921","2,4,6-trimethylbenzene-1,3-diamine",-0.8207163555,"Cc1cc(C)c(N)c(C)c1N","Cc1cc(C)c(N)c(C)c1N",8.989337660712865,"Cc1cc(C)c(N)c(C)c1N",1.77626,52.04,150.115698448,2,4,0,2,2,0,2,11,25,0,1,1,0,0,0,0,0,1,0,0,0.3333333333333333
"A-2924","tempone",0.1034125496,"CC1(C)CC(=O)CC(C)(C)N1[O]","CC1(C)CC(=O)CC(C)(C)N1[O]",13.041664212925353,"CC1(C)CC(=O)CC(C)(C)N1[O]",1.554,40.21,170.118103752,3,0,0,0,2,0,3,12,28,0,1,0,1,1,0,1,1,0,0,0,0.8888888888888888
"A-2927","4-methylphenol",-0.7015479053,"Cc1ccc(O)cc1","Cc1ccc(O)cc1",13.271983154988664,"Cc1ccc(O)cc1",1.7006199999999998,20.23,108.057514876,1,1,0,1,1,0,1,8,16,0,1,1,0,0,0,0,0,1,0,0,0.14285714285714285
"A-2930","cytidine 3'-(dihydrogen phosphate)",-1.1987753523,"Nc1ccn(C2OC(COP(=O)([O-])[O-])C(O)C2O)c(=O)n1","NC1=NC(=O)N(C2OC(COP(=O)([O-])[O-])C(O)C2O)C=C1",-119.13803783378488,"Nc1nc(=O)n(C2OC(COP(=O)([O-])[O-])C(O)C2O)cc1",-3.4150999999999985,180.79999999999995,321.03729813382,11,4,4,3,9,2,12,21,33,4,2,0,1,2,0,1,2,0,0,0,0.5555555555555556
"A-2933","methyl 2-aminobenzoate",-1.7338470451,"COC(=O)c1ccccc1N","COC(=O)c1ccccc1N",10.381137854327825,"COC(=O)c1ccccc1N",1.0554,52.32,151.063328528,3,2,1,1,3,0,3,11,20,0,1,1,0,0,0,0,0,1,0,0,0.125
"A-2937","N-ethyl(propan-2-yloxy)carbothioamide",-1.7447887835,"CCNC(=S)OC(C)C","CCNC(=S)OC(C)C",-13.223130283127798,"CCNC(=S)OC(C)C",1.3058,21.259999999999998,147.071785036,2,1,2,1,2,0,3,9,22,0,0,0,0,0,0,0,0,0,0,0,0.8333333333333334
"A-2940","ethyl 3,4-dihydroxybenzoate",-1.8556550616,"CCOC(=O)c1ccc(O)c(O)c1","CCOC(=O)c1ccc(O)c(O)c1",9.075524191977319,"CCOC(=O)c1ccc(O)c(O)c1",1.2744999999999997,66.76,182.0579088,4,2,2,2,4,0,4,13,23,0,1,1,0,0,0,0,0,1,0,0,0.2222222222222222
"A-2942","benzene-1,3,5-tricarboxylic acid",-1.9422995529,"O=C([O-])c1cc(C(=O)[O-])cc(C(=O)[O-])c1","O=C([O-])c1cc(C(=O)[O-])cc(C(=O)[O-])c1",191.91578000041682,"O=C([O-])c1cc(C(=O)[O-])cc(C(=O)[O-])c1",-3.2229,120.38999999999999,206.99460855573003,6,0,3,0,6,0,6,15,18,0,1,1,0,0,0,0,0,1,0,0,0
"A-2943","3-(3,4-Dimethoxyphenyl)propanenitrile",-1.9013447833,"COc1ccc(CCC#N)cc1OC","COc1ccc(CCC#N)cc1OC",29.943774473389084,"COc1ccc(CCC#N)cc1OC",2.15998,42.25,191.094628656,3,0,4,0,3,0,3,14,27,0,1,1,0,0,0,0,0,1,0,0,0.36363636363636365
"A-2947","octahydrocyclopenta[c]pyrrole-1,3-dione",0.1553573817,"O=C1NC(=O)C2CCCC12","O=C1NC(=O)C2CCCC12",-12.371380536107697,"O=C1NC(=O)C2CCCC12",0.059099999999999486,46.17,139.063328528,3,1,0,1,2,2,3,10,19,2,2,0,2,2,0,1,1,0,1,1,0.7142857142857143
"A-2950","(8R,9S,13S,14S,17S)-17-hydroxy-13-methyl-2,4,6,7,8,9,11,12,14,15,16,17-dodecahydro-1H-cyclopenta[a]phenanthren-3-one",-4.947028744,"C[C@]12CC[C@@H]3C4=C(CC[C@H]3[C@@H]1CC[C@@H]2O)CC(=O)CC4","C[C@]12CC[C@@H]3C4=C(CC[C@H]3[C@@H]1CC[C@@H]2O)CC(=O)CC4",53.878317959295764,"C[C@]12CC[C@@H]3C4=C(CC[C@H]3[C@@H]1CC[C@@H]2O)CC(=O)CC4",3.633200000000002,37.3,274.193280072,2,1,0,1,2,0,2,20,46,5,4,0,2,4,0,0,0,0,2,4,0.8333333333333334
"A-2955","Aescin",-1.1031036675,"CC=C(C)C(=O)OC1C(OC(C)=O)C2(CO)C(O)CC3(C)C(=CCC4C5(C)CCC(OC6OC(C(=O)[O-])C(OC7OC(CO)C(O)C(O)C7O)C(O)C6OC6OC(CO)C(O)C(O)C6O)C(C)(CO)C5CCC43C)C2CC1(C)C","CC=C(C)C(=O)OC1C(OC(C)=O)C2(CO)C(O)CC3(C)C(=CCC4C5(C)CCC(OC6OC(C(=O)[O-])C(OC7OC(CO)C(O)C(O)C7O)C(O)C6OC6OC(CO)C(O)C(O)C6O)C(C)(CO)C5CCC43C)C2CC1(C)C",215.91959824117905,"CC=C(C)C(=O)OC1C(OC(=O)C)C2(CO)C(O)CC3(C)C(=CCC4C5(C)CCC(OC6OC(C(=O)[O-])C(OC7OC(CO)C(O)C(O)C7O)C(O)C6OC6OC(CO)C(O)C(O)C6O)C(C)(CO)C5CCC34C)C2CC1(C)C",-2.6557999999999833,390.87000000000006,1129.5436271799106,24,12,14,12,24,0,24,79,164,27,8,0,7,8,0,3,3,0,4,5,0.8727272727272727
"A-2969","cyclohexanone oxime",-0.8495729561,"ON=C1CCCCC1","ON=C1CCCCC1",10.585657064996491,"ON=C1CCCCC1",1.7807,32.59,113.084063972,2,1,0,1,2,0,2,8,19,0,1,0,1,1,0,0,0,0,1,1,0.8333333333333334
"A-2971","(2S)-pyrrolidine-2-carboxylic acid",1.1291356492,"O=C([O-])C1CCC[NH2+]1","O=C([O-])C1CCC[NH2+]1",-37.315599624440594,"O=C([O-])C1CCC[NH2+]1",-2.5378999999999987,56.739999999999995,115.063328528,3,2,1,1,2,0,3,8,17,1,1,0,1,1,0,1,1,0,0,0,0.8
"A-2981","N,N-dimethylcyclohexanamine",-0.9774881423,"C[NH+](C)C1CCCCC1","C[NH+](C)C1CCCCC1",12.226241117358924,"C[NH+](C)C1CCCCC1",0.4635999999999998,4.44,128.14337599609,1,1,1,1,0,0,1,9,27,0,1,0,1,1,0,0,0,0,1,1,1
"A-2985","(6-aminohexyl)carbamic acid",-0.0952988049,"[NH3+]CCCCCCNC(=O)[O-]","[NH3+]CCCCCCNC(=O)[O-]",-143.50636110580555,"[NH3+]CCCCCCNC(=O)[O-]",-1.2783999999999998,79.8,160.121177752,4,4,6,2,2,1,4,11,27,0,0,0,0,0,0,0,0,0,0,0,0.8571428571428571
"A-2991","2-(2-ethoxyethoxy)ethyl prop-2-enoate",-0.181251006,"C=CC(=O)OCCOCCOCC","C=CC(=O)OCCOCCOCC",17.263930506501033,"C=CC(=O)OCCOCCOCC",0.7686999999999999,44.760000000000005,188.104858992,4,0,8,0,4,0,4,13,29,0,0,0,0,0,0,0,0,0,0,0,0.6666666666666666
"A-2999","benzenesulfonic acid",0.8489070931,"O=S(=O)([O-])c1ccccc1","O=S(=O)([O-])c1ccccc1",15.562255207583616,"O=S(=O)([O-])c1ccccc1",0.5907000000000002,57.2,156.99648859991,3,0,1,0,3,0,4,10,15,0,1,1,0,0,0,0,0,1,0,0,0
"A-3000","xylenesulphonic acid",0.7779988658,"Cc1cccc(S(=O)(=O)[O-])c1C","Cc1cccc(S(=O)(=O)[O-])c1C",34.35028054727336,"Cc1cccc(S(=O)(=O)[O-])c1C",1.20754,57.2,185.02778872791,3,0,1,0,3,0,4,12,21,0,1,1,0,0,0,0,0,1,0,0,0.25
"A-3005","2-(butylamino)ethan-1-ol",0.931102034,"CCCC[NH2+]CCO","CCCC[NH2+]CCO",-3.1572878334210084,"CCCC[NH2+]CCO",-0.657799999999999,36.84,118.12264055208999,2,3,5,2,1,0,2,8,24,0,0,0,0,0,0,0,0,0,0,0,1
"A-3018","ethyl N-ethyl-N-phenylcarbamate",0.8673994761,"CCOC(=O)N(CC)c1ccccc1","CCOC(=O)N(CC)c1ccccc1",-17.838278835920903,"CCOC(=O)N(CC)c1ccccc1",2.6694000000000013,29.54,193.11027872,3,0,3,0,2,1,3,14,29,0,1,1,0,0,0,0,0,1,0,0,0.36363636363636365
"A-3021","4-(4-hydroxybenzenesulfonyl)phenol",-2.3570247849,"O=S(=O)(c1ccc([O-])cc1)c1ccc([O-])cc1","O=S(=O)(c1ccc([O-])cc1)c1ccc([O-])cc1",52.59661557972944,"O=S(=O)(c1ccc([O-])cc1)c1ccc([O-])cc1",0.6666000000000001,80.26,248.01542689582,4,0,2,0,4,0,5,17,25,0,2,2,0,0,0,0,0,2,0,0,0
"A-3024","1-(2,4-dihydroxy-6-{[(2S,3R,4S,5S,6R)-3,4,5-trihydroxy-6-(hydroxymethyl)oxan-2-yl]oxy}phenyl)-3-(4-hydroxyphenyl)propan-1-one",-2.639897679,"O=C(CCc1ccc(O)cc1)c1c(O)cc(O)cc1O[C@@H]1O[C@H](CO)[C@@H](O)[C@H](O)[C@H]1O","O=C(CCc1ccc(O)cc1)c1c(O)cc(O)cc1O[C@@H]1O[C@H](CO)[C@@H](O)[C@H](O)[C@H]1O",81.05666913580286,"O=C(CCc1ccc(O)cc1)c1c(O)cc(O)cc1O[C@@H]1O[C@H](CO)[C@@H](O)[C@H](O)[C@H]1O",-0.2024000000000002,177.14,436.13694696799985,10,7,7,7,10,0,10,31,55,5,3,2,1,1,0,1,1,2,0,0,0.38095238095238093
"A-3027","2-phenylethyl acetate",-2.2317574452,"CC(=O)OCCc1ccccc1","CC(=O)OCCc1ccccc1",5.651579054824694,"CC(=O)OCCc1ccccc1",1.7922,26.3,164.083729624,2,0,3,0,2,0,2,12,24,0,1,1,0,0,0,0,0,1,0,0,0.3
"A-3028","5-(dithiolan-3-yl)valeric acid",-2.3750473352,"O=C([O-])CCCCC1CCSS1","O=C([O-])CCCCC1CCSS1",-4.381718840910107,"O=C([O-])CCCCC1CCSS1",1.4503999999999997,40.129999999999995,205.03624523591,2,0,5,0,4,0,4,12,25,1,1,0,1,1,0,1,1,0,0,0,0.875
"A-3029","2-(2-methylphenoxymethyl)oxirane",-2.2911044462,"Cc1ccccc1OCC1CO1","Cc1ccccc1OCC1CO1",20.3666956212698,"Cc1ccccc1OCC1CO1",1.7726199999999999,21.759999999999998,164.083729624,2,0,3,0,2,0,2,12,24,1,2,1,1,1,0,1,1,1,0,0,0.4
"A-3043","3,5,5-trimethylhexanal",-2.6759065954,"CC(CC=O)CC(C)(C)C","CC(CC=O)CC(C)(C)C",6.523268399670117,"CC(CC=O)CC(C)(C)C",2.6477000000000013,17.07,142.135765196,1,0,3,0,1,0,1,10,28,1,0,0,0,0,0,0,0,0,0,0,0.8888888888888888
"A-3049","(E)-anethole",-3.1255398769,"CC=Cc1ccc(OC)cc1","CC=Cc1ccc(OC)cc1",23.352648662212605,"CC=Cc1ccc(OC)cc1",2.728300000000001,9.23,148.088815004,1,0,2,0,1,0,1,11,23,0,1,1,0,0,0,0,0,1,0,0,0.2
"A-3054","4-(2-{2-amino-4-oxo-3H,4H,7H-pyrrolo[2,3-d]pyrimidin-5-yl}ethyl)benzoic acid",-3.5742890365,"Nc1nc2[nH]cc(CCc3ccc(C(=O)[O-])cc3)c2c(=O)[nH]1","NC1=Nc2[nH]cc(CCc3ccc(C(=O)[O-])cc3)c2C(=O)N1",24.61195305644013,"Nc1nc2[nH]cc(CCc3ccc(C(=O)[O-])cc3)c2c(=O)[nH]1",-0.1470000000000004,123.4,297.09931385591005,7,4,4,3,5,1,7,22,35,0,3,2,0,1,1,0,1,1,0,0,0.13333333333333333
"A-3061","ethyl N,N-diphenylcarbamate",-3.9692395593,"CCOC(=O)N(c1ccccc1)c1ccccc1","CCOC(=O)N(c1ccccc1)c1ccccc1",30.714407501829793,"CCOC(=O)N(c1ccccc1)c1ccccc1",3.981200000000003,29.54,241.11027872,3,0,3,0,2,1,3,18,33,0,2,2,0,0,0,0,0,2,0,0,0.13333333333333333
"A-3068","2,6,10,15,19,23-hexamethyltetracosane",-5.1490404299,"CC(C)CCCC(C)CCCC(C)CCCCC(C)CCCC(C)CCCC(C)C","CC(C)CCCC(C)CCCC(C)CCCCC(C)CCCC(C)CCCC(C)C",18.27126581773513,"CC(C)CCCC(C)CCCC(C)CCCCC(C)CCCC(C)CCCC(C)C",11.08439999999999,0,422.485151984,0,0,21,0,0,0,0,30,92,4,0,0,0,0,0,0,0,0,0,0,1
"A-3073","octadec-2-enylsuccinic acid",-6.9644458512,"CCCCCCCCCCCCCCCC=CCC(CC(=O)[O-])C(=O)[O-]","CCCCCCCCCCCCCCCC=CCC(CC(=O)[O-])C(=O)[O-]",51.067662888246765,"CCCCCCCCCCCCCCCC=CCC(CC(=O)[O-])C(=O)[O-]",3.9201000000000024,80.25999999999999,366.2781068558199,4,0,19,0,4,0,4,26,64,1,0,0,0,0,0,0,0,0,0,0,0.8181818181818182
"A-3074","3-[2-(hexadecyloxy)phenyl]-3-oxo-N-(4-phenyl-1,3-thiazol-2-yl)propanamide",-4.8472795348,"CCCCCCCCCCCCCCCCOc1ccccc1C(=O)CC(=O)Nc1nc(-c2ccccc2)cs1","CCCCCCCCCCCCCCCCOc1ccccc1C(=O)CC(=O)Nc1nc(-c2ccccc2)cs1",28.86513208920604,"CCCCCCCCCCCCCCCCOc1ccccc1C(=O)CC(=O)Nc1nc(c2ccccc2)cs1",9.881699999999999,68.29,562.3229143320001,5,1,21,1,5,1,6,40,86,0,3,3,0,0,1,0,0,2,0,0,0.5
"A-3075","2-isopropoxyethyl acetate",-0.1657752416,"CC(=O)OCCOC(C)C","CC(=O)OCCOC(C)C",4.608369739900023,"CC(=O)OCCOC(C)C",0.9744999999999999,35.53,146.094294308,3,0,4,0,3,0,3,10,24,0,0,0,0,0,0,0,0,0,0,0,0.8571428571428571
"A-3077","2,2,4-trimethylhexanedioic acid; 2,4,4-trimethylhexanedioic acid",-0.2790374966,"CC(CC(=O)[O-])CC(C)(C)C(=O)[O-]","CC(CC(=O)[O-])CC(C)(C)C(=O)[O-]",60.10868809439236,"CC(CC(=O)[O-])CC(C)(C)C(=O)[O-]",-1.071299999999999,80.25999999999999,186.09030608782,4,0,5,0,4,0,4,13,27,1,0,0,0,0,0,0,0,0,0,0,0.7777777777777778
"A-3078","2-hydroxy-5-sulfobenzoic acid",0.6554902722,"O=C([O-])c1cc(S(=O)(=O)[O-])ccc1O","O=C([O-])c1cc(S(=O)(=O)[O-])ccc1O",71.76121788120452,"O=C([O-])c1cc(S(=O)(=O)[O-])ccc1O",-1.3402,117.56,215.97395600782002,6,1,2,1,6,0,7,14,18,0,1,1,0,0,0,0,0,1,0,0,0
"A-3081","1-(2-hydroxyethyl)imidazolidin-2-one",0.8776773261,"O=C1NCCN1CCO","O=C1NCCN1CCO",-23.530283505203293,"O=C1NCCN1CCO",-0.9961000000000002,52.57000000000001,130.07422756,4,2,2,2,2,2,4,9,19,0,1,0,1,1,0,1,1,0,0,0,0.8
"A-3082","4-(2-hydroxyethoxy)benzene-1,3-diaminium sulfate",-0.2337041755,"Nc1ccc(OCCO)c(N)c1","Nc1ccc(OCCO)c(N)c1",29.8854536409207,"Nc1ccc(OCCO)c(N)c1",0.2220999999999999,81.5,168.089877624,4,5,3,3,4,0,4,12,24,0,1,1,0,0,0,0,0,1,0,0,0.25
"A-3084","2-methylprop-2-enoyl 2-methylprop-2-enoate",-0.1967597116,"C=C(C)C(=O)OC(=O)C(=C)C","C=C(C)C(=O)OC(=O)C(=C)C",-29.814400521546826,"C=C(C)C(=O)OC(=O)C(=C)C",1.2084,43.370000000000005,154.06299418,3,0,2,0,3,0,3,11,21,0,0,0,0,0,0,0,0,0,0,0,0.25
"A-3089","2-[(2-hydroxyethyl)amino]ethan-1-ol",0.9577927941,"OCC[NH2+]CCO","OCC[NH2+]CCO",-5.868205014971549,"OCC[NH2+]CCO",-2.465599999999999,57.07000000000001,106.08625504409,3,4,4,3,2,0,3,7,19,0,0,0,0,0,0,0,0,0,0,0,1
"A-3091","2-(2-{2-[2-(prop-2-enoyloxy)ethoxy]ethoxy}ethoxy)ethyl prop-2-enoate",-0.5000132962,"C=CC(=O)OCCOCCOCCOCCOC(=O)C=C","C=CC(=O)OCCOCCOCCOCCOC(=O)C=C",37.297078738197456,"C=CC(=O)OCCOCCOCCOCCOC(=O)C=C",0.49459999999999993,80.29000000000002,302.136553044,7,0,14,0,7,0,7,21,43,0,0,0,0,0,0,0,0,0,0,0,0.5714285714285714
"A-3098","1-methoxy-2-(2-methoxyethoxy)ethane",0.8454562496,"COCCOCCOC","COCCOCCOC",28.25412760073519,"COCCOCCOC",0.29580000000000006,27.69,134.094294308,3,0,6,0,3,0,3,9,23,0,0,0,0,0,0,0,0,0,0,0,1
"A-3123","4-methylaniline",-1.0477452605,"Cc1ccc(N)cc1","Cc1ccc(N)cc1",12.925282855317304,"Cc1ccc(N)cc1",1.5772199999999998,26.02,107.073499288,1,2,0,1,1,0,1,8,17,0,1,1,0,0,0,0,0,1,0,0,0.14285714285714285
"A-3128","2-ethoxyphenol",-1.1714515037,"CCOc1ccccc1O","CCOc1ccccc1O",23.590965934006235,"CCOc1ccccc1O",1.7908999999999997,29.46,138.06807956,2,1,2,1,2,0,2,10,20,0,1,1,0,0,0,0,0,1,0,0,0.25
"A-3129","(5-ethyl-1,3-dioxan-5-yl)methyl prop-2-enoate",-1.3330548746,"C=CC(=O)OCC1(CC)COCOC1","C=CC(=O)OCC1(CC)COCOC1",-25.34182029701116,"C=CC(=O)OCC1(CC)COCOC1",1.1162999999999998,44.760000000000005,200.104858992,4,0,4,0,4,0,4,14,30,0,1,0,1,1,0,1,1,0,0,0,0.7
"A-3132","4-hydroxy-3-methoxybenzaldehyde",-1.2280265929,"COc1cc(C=O)ccc1O","COc1cc(C=O)ccc1O",24.60530637275351,"COc1cc(C=O)ccc1O",1.2132999999999998,46.53,152.047344116,3,1,2,1,3,0,3,11,19,0,1,1,0,0,0,0,0,1,0,0,0.125
"A-3144","1-[(2-hydroxypropyl)amino]propan-2-ol",0.815044373,"CC(O)C[NH2+]CC(C)O","CC(O)C[NH2+]CC(C)O",-4.39850582637908,"CC(O)C[NH2+]CC(C)O",-1.688599999999999,57.07000000000001,134.11755517209,3,4,4,3,2,0,3,9,25,2,0,0,0,0,0,0,0,0,0,0,1
"A-3146","Methenamine",0.7924026819,"C1N2CN3CN1C[NH+](C2)C3","C1N2CN3CN1C[NH+](C2)C3",-367.6112999725186,"C1N2CN3CN1C[NH+](C2)C3",-2.436899999999997,14.16,141.11347283608998,4,1,0,1,3,0,4,10,23,0,4,0,4,4,0,4,4,0,0,0,1
"A-3162","2,2-dimethylpropane-1,3-diol",0.901422988,"CC(C)(CO)CO","CC(C)(CO)CO",0.9601443010304269,"CC(C)(CO)CO",-0.0028000000000000247,40.46,104.083729624,2,2,2,2,2,0,2,7,19,0,0,0,0,0,0,0,0,0,0,0,1
"A-3169","azepan-2-one",0.8601209136,"O=C1CCCCCN1","O=C1CCCCCN1",-0.3170656318847138,"O=C1CCCCCN1",0.6766000000000001,29.1,113.084063972,2,1,0,1,1,1,2,8,19,0,1,0,1,1,0,1,1,0,0,0,0.8333333333333334
"A-3175","dimethyl {3-[(hydroxymethyl)amino]-3-oxopropyl}phosphonate",1.5784906741,"COP(=O)(CCC(=O)NCO)OC","COP(=O)(CCC(=O)NCO)OC",-87.20435935093485,"COP(=O)(CCC(=O)NCO)OC",-0.0716,84.86000000000001,211.06095917800002,6,2,6,2,5,1,7,13,27,0,0,0,0,0,0,0,0,0,0,0,0.8333333333333334
"A-3179","2,2'-ethene-1,2-diylbis[5-({4-anilino-6-[bis(2-hydroxyethyl)amino]-1,3,5-triazin-2-yl}amino)benzenesulfonic acid]",-1.0592793487,"O=S(=O)([O-])c1cc(Nc2nc(Nc3ccccc3)nc(N(CCO)CCO)n2)ccc1C=Cc1ccc(Nc2nc(Nc3ccccc3)nc(N(CCO)CCO)n2)cc1S(=O)(=O)[O-]","O=S(=O)([O-])c1cc(Nc2nc(Nc3ccccc3)nc(N(CCO)CCO)n2)ccc1C=Cc1ccc(Nc2nc(Nc3ccccc3)nc(N(CCO)CCO)n2)cc1S(=O)(=O)[O-]",-206.10602589605577,"O=S(=O)([O-])c1cc(Nc2nc(Nc3ccccc3)nc(N(CCO)CCO)n2)ccc1C=Cc1ccc(Nc2nc(Nc3ccccc3)nc(N(CCO)CCO)n2)cc1S(=O)(=O)[O-]",2.5916000000000006,327.26,914.25992470382,22,8,22,8,22,0,24,64,106,0,6,6,0,0,2,0,0,4,0,0,0.2
"A-3180","hexanedinitrile",-0.1309124421,"N#CCCCCC#N","N#CCCCCC#N",0.4020492354918579,"N#CCCCCC#N",1.59396,47.58,108.06874825599999,2,0,3,0,2,0,2,8,16,0,0,0,0,0,0,0,0,0,0,0,0.6666666666666666
"A-3181","3-oxo-N-phenylbutanamide",-1.2990810635,"CC(=O)CC(=O)Nc1ccccc1","CC(=O)CC(=O)Nc1ccccc1",-0.6908167639005036,"CC(=O)CC(=O)Nc1ccccc1",1.6041999999999998,46.17,177.078978592,3,1,3,1,2,1,3,13,24,0,1,1,0,0,0,0,0,1,0,0,0.2
"A-3186","2-butyl-2-ethylpropane-1,3-diol",-1.2603343364,"CCCCC(CC)(CO)CO","CCCCC(CC)(CO)CO",11.802976434612638,"CCCCC(CC)(CO)CO",1.5575999999999999,40.46,160.14632988,2,2,6,2,2,0,2,11,31,0,0,0,0,0,0,0,0,0,0,0,1
"A-3195","Pyromellitic dianhydride",-1.4062217243,"O=c1oc(=O)c2cc3c(=O)oc(=O)c3cc12","O=C1OC(=O)c2cc3c(cc21)C(=O)OC3=O",-31.712936135943245,"O=c1oc(=O)c2cc3c(cc12)c(=O)oc3=O",0.3078000000000001,86.74000000000001,217.985137784,6,0,0,0,6,0,6,16,18,0,3,1,0,2,0,0,2,1,0,0,0
"A-3196","butyl 4-oxopentanoate",-1.306674746,"CCCCOC(=O)CCC(C)=O","CCCCOC(=O)CCC(C)=O",-21.429535115060958,"CCCCOC(=O)CCC(=O)C",1.6989,43.370000000000005,172.109944372,3,0,6,0,3,0,3,12,28,0,0,0,0,0,0,0,0,0,0,0,0.7777777777777778
"A-3197","5-methyl-octahydro-2-benzofuran-1,3-dione",-1.3015260488,"CC1CCC2C(=O)OC(=O)C2C1","CC1CCC2C(=O)OC(=O)C2C1",-20.63458377694603,"CC1CCC2C(=O)OC(=O)C2C1",1.1221999999999999,43.370000000000005,168.078644244,3,0,0,0,3,0,3,12,24,3,2,0,2,2,0,1,1,0,1,1,0.7777777777777778
"A-3201","2,6-dimethylaniline",-1.167514488,"Cc1cccc(C)c1N","Cc1cccc(C)c1N",11.726371881991303,"Cc1cccc(C)c1N",1.88564,26.02,121.08914935199999,1,2,0,1,1,0,1,9,20,0,1,1,0,0,0,0,0,1,0,0,0.25
"A-3202","1,4-dimethyl cyclohexane-1,4-dicarboxylate",-1.3871946661,"COC(=O)C1CCC(C(=O)OC)CC1","COC(=O)C1CCC(C(=O)OC)CC1",-8.763612352342605,"COC(=O)C1CCC(C(=O)OC)CC1",1.1387999999999998,52.60000000000001,200.104858992,4,0,2,0,4,0,4,14,30,0,1,0,1,1,0,0,0,0,1,1,0.8
"A-3205","4-aminobenzamide",-1.2255453859,"NC(=O)c1ccc(N)cc1","NC(=O)c1ccc(N)cc1",19.331716732910834,"NC(=O)c1ccc(N)cc1",0.3677,69.11,136.063662876,3,4,1,2,2,1,3,10,18,0,1,1,0,0,0,0,0,1,0,0,0
"A-3206","1,3-dimethyl-3,7-dihydro-1H-purine-2,6-dione",-1.3525852601,"Cn1c(=O)c2[nH]cnc2n(C)c1=O","CN1C(=O)c2[nH]cnc2N(C)C1=O",-136.22566186649604,"Cn1c(=O)c2[nH]cnc2n(C)c1=O",0.05150000000000016,69.30000000000001,180.064725496,6,1,0,1,3,3,6,13,21,0,2,1,0,1,1,0,1,0,0,0,0.2857142857142857
"A-3209","benzyldimethylamine",-1.2279188258,"C[NH+](C)Cc1ccccc1","C[NH+](C)Cc1ccccc1",4.414982443631335,"C[NH+](C)Cc1ccccc1",0.33109999999999995,4.44,136.11207586809,1,1,2,1,0,0,1,10,24,0,1,1,0,0,0,0,0,1,0,0,0.3333333333333333